/*--------------------------------*- C++ -*----------------------------------*\
| =========                 |                                                 |
| \\      /  F ield         | OpenFOAM: The Open Source CFD Toolbox           |
|  \\    /   O peration     | Version:  v1812                                 |
|   \\  /    A nd           | Web:      www.OpenFOAM.com                      |
|    \\/     M anipulation  |                                                 |
\*---------------------------------------------------------------------------*/
FoamFile
{
    version     2.0;
    format      ascii;
    class       volScalarField;
    location    "0.2";
    object      T;
}
// * * * * * * * * * * * * * * * * * * * * * * * * * * * * * * * * * * * * * //

dimensions      [0 0 0 1 0 0 0];


internalField   nonuniform List<scalar> 
8000
(
713.131
697.612
680.713
665.181
651.686
640.397
631.356
624.572
620.049
617.788
617.788
620.049
624.572
631.356
640.397
651.686
665.181
680.713
697.612
713.131
692.993
678.429
662.403
647.639
634.804
624.065
615.463
609.01
604.707
602.555
602.555
604.707
609.01
615.463
624.065
634.804
647.639
662.403
678.429
692.993
672.861
659.219
644.059
630.062
617.886
607.697
599.535
593.412
589.329
587.287
587.287
589.329
593.412
599.535
607.697
617.886
630.062
644.059
659.219
672.861
652.735
639.984
625.684
612.452
600.935
591.296
583.574
577.78
573.917
571.986
571.986
573.917
577.78
583.574
591.296
600.935
612.452
625.684
639.984
652.735
632.615
620.728
607.28
594.812
583.953
574.863
567.581
562.117
558.475
556.653
556.653
558.475
562.117
567.581
574.863
583.953
594.812
607.28
620.728
632.615
612.5
601.45
588.85
577.143
566.942
558.402
551.56
546.426
543.003
541.292
541.292
543.003
546.426
551.56
558.402
566.942
577.143
588.85
601.45
612.5
592.39
582.155
570.395
559.448
549.905
541.914
535.512
530.708
527.505
525.904
525.904
527.505
530.708
535.512
541.914
549.905
559.448
570.395
582.155
592.39
572.286
562.842
551.917
541.729
532.844
525.402
519.439
514.965
511.983
510.491
510.491
511.983
514.965
519.439
525.402
532.844
541.729
551.917
562.842
572.286
552.186
543.515
533.419
523.988
515.76
508.867
503.344
499.2
496.437
495.056
495.056
496.437
499.2
503.344
508.867
515.76
523.988
533.419
543.515
552.186
532.09
524.174
514.901
506.227
498.655
492.311
487.228
483.415
480.872
479.6
479.6
480.872
483.415
487.228
492.311
498.655
506.227
514.901
524.174
532.09
511.999
504.82
496.367
488.448
481.532
475.737
471.094
467.61
465.287
464.125
464.125
465.287
467.61
471.094
475.737
481.532
488.448
496.367
504.82
511.999
491.912
485.456
477.817
470.652
464.391
459.146
454.942
451.788
449.685
448.634
448.634
449.685
451.788
454.942
459.146
464.391
470.652
477.817
485.456
491.912
471.828
466.082
459.254
452.841
447.236
442.539
438.776
435.951
434.068
433.127
433.127
434.068
435.951
438.776
442.539
447.236
452.841
459.254
466.082
471.828
451.747
446.699
440.678
435.016
430.067
425.919
422.595
420.101
418.438
417.606
417.606
418.438
420.101
422.595
425.919
430.067
435.016
440.678
446.699
451.747
431.669
427.309
422.091
417.181
412.886
409.287
406.403
404.239
402.796
402.074
402.074
402.796
404.239
406.403
409.287
412.886
417.181
422.091
427.309
431.669
411.593
407.913
403.496
399.335
395.695
392.645
390.2
388.366
387.143
386.531
386.531
387.143
388.366
390.2
392.645
395.695
399.335
403.496
407.913
411.593
391.52
388.512
384.892
381.48
378.496
375.994
373.989
372.485
371.482
370.98
370.98
371.482
372.485
373.989
375.994
378.496
381.48
384.892
388.512
391.52
371.448
369.106
366.282
363.619
361.289
359.336
357.771
356.597
355.814
355.422
355.422
355.814
356.597
357.771
359.336
361.289
363.619
366.282
369.106
371.448
351.378
349.697
347.667
345.753
344.077
342.673
341.548
340.703
340.14
339.858
339.858
340.14
340.703
341.548
342.673
344.077
345.753
347.667
349.697
351.378
331.309
330.285
329.049
327.883
326.862
326.006
325.32
324.805
324.462
324.29
324.29
324.462
324.805
325.32
326.006
326.862
327.883
329.049
330.285
331.309
717.863
702.344
685.444
669.913
656.418
645.129
636.088
629.304
624.781
622.519
622.519
624.781
629.304
636.088
645.129
656.418
669.913
685.444
702.344
717.863
697.387
682.823
666.796
652.033
639.198
628.459
619.857
613.404
609.101
606.949
606.949
609.101
613.404
619.857
628.459
639.198
652.033
666.796
682.823
697.387
676.937
663.294
648.134
634.137
621.962
611.772
603.611
597.487
593.404
591.362
591.362
593.404
597.487
603.611
611.772
621.962
634.137
648.134
663.294
676.937
656.51
643.759
629.458
616.227
604.71
595.07
587.348
581.555
577.692
575.76
575.76
577.692
581.555
587.348
595.07
604.71
616.227
629.458
643.759
656.51
636.105
624.217
610.77
598.301
587.443
578.353
571.071
565.607
561.964
560.143
560.143
561.964
565.607
571.071
578.353
587.443
598.301
610.77
624.217
636.105
615.719
604.669
592.069
580.362
570.161
561.621
554.779
549.645
546.222
544.51
544.51
546.222
549.645
554.779
561.621
570.161
580.362
592.069
604.669
615.719
595.351
585.116
573.355
562.409
552.866
544.875
538.473
533.669
530.466
528.864
528.864
530.466
533.669
538.473
544.875
552.866
562.409
573.355
585.116
595.351
575
565.557
554.631
544.444
535.558
528.116
522.154
517.68
514.697
513.205
513.205
514.697
517.68
522.154
528.116
535.558
544.444
554.631
565.557
575
554.663
545.993
535.896
526.466
518.237
511.345
505.822
501.678
498.915
497.534
497.534
498.915
501.678
505.822
511.345
518.237
526.466
535.896
545.993
554.663
534.341
526.424
517.152
508.478
500.905
494.562
489.479
485.665
483.122
481.85
481.85
483.122
485.665
489.479
494.562
500.905
508.478
517.152
526.424
534.341
514.03
506.851
498.398
490.479
483.563
477.768
473.125
469.641
467.318
466.156
466.156
467.318
469.641
473.125
477.768
483.563
490.479
498.398
506.851
514.03
493.73
487.274
479.636
472.47
466.21
460.964
456.761
453.607
451.504
450.452
450.452
451.504
453.607
456.761
460.964
466.21
472.47
479.636
487.274
493.73
473.44
467.694
460.866
454.453
448.849
444.152
440.388
437.564
435.681
434.74
434.74
435.681
437.564
440.388
444.152
448.849
454.453
460.866
467.694
473.44
453.159
448.111
442.09
436.428
431.479
427.331
424.007
421.513
419.85
419.018
419.018
419.85
421.513
424.007
427.331
431.479
436.428
442.09
448.111
453.159
432.885
428.525
423.307
418.397
414.102
410.503
407.619
405.455
404.012
403.29
403.29
404.012
405.455
407.619
410.503
414.102
418.397
423.307
428.525
432.885
412.618
408.937
404.52
400.359
396.72
393.669
391.225
389.39
388.167
387.556
387.556
388.167
389.39
391.225
393.669
396.72
400.359
404.52
408.937
412.618
392.356
389.347
385.728
382.316
379.331
376.83
374.825
373.321
372.317
371.816
371.816
372.317
373.321
374.825
376.83
379.331
382.316
385.728
389.347
392.356
372.098
369.755
366.932
364.269
361.939
359.986
358.421
357.246
356.463
356.072
356.072
356.463
357.246
358.421
359.986
361.939
364.269
366.932
369.755
372.098
351.844
350.163
348.133
346.219
344.543
343.139
342.013
341.169
340.605
340.324
340.324
340.605
341.169
342.013
343.139
344.543
346.219
348.133
350.163
351.844
331.592
330.569
329.332
328.166
327.145
326.289
325.603
325.088
324.745
324.574
324.574
324.745
325.088
325.603
326.289
327.145
328.166
329.332
330.569
331.592
724.173
708.654
691.754
676.222
662.728
651.439
642.397
635.613
631.091
628.829
628.829
631.091
635.613
642.397
651.439
662.728
676.222
691.754
708.654
724.173
703.343
688.779
672.752
657.989
645.154
634.415
625.813
619.36
615.057
612.905
612.905
615.057
619.36
625.813
634.415
645.154
657.989
672.752
688.779
703.343
682.546
668.903
653.743
639.746
627.571
617.381
609.22
603.096
599.013
596.972
596.972
599.013
603.096
609.22
617.381
627.571
639.746
653.743
668.903
682.546
661.778
649.027
634.727
621.495
609.978
600.338
592.617
586.823
582.96
581.029
581.029
582.96
586.823
592.617
600.338
609.978
621.495
634.727
649.027
661.778
641.038
629.151
615.704
603.235
592.377
583.287
576.005
570.541
566.898
565.076
565.076
566.898
570.541
576.005
583.287
592.377
603.235
615.704
629.151
641.038
620.324
609.274
596.674
584.967
574.767
566.226
559.384
554.25
550.827
549.116
549.116
550.827
554.25
559.384
566.226
574.767
584.967
596.674
609.274
620.324
599.633
589.398
577.638
566.691
557.148
549.157
542.755
537.951
534.748
533.147
533.147
534.748
537.951
542.755
549.157
557.148
566.691
577.638
589.398
599.633
578.964
569.521
558.595
548.408
539.522
532.08
526.118
521.644
518.661
517.17
517.17
518.661
521.644
526.118
532.08
539.522
548.408
558.595
569.521
578.964
558.315
549.644
539.548
530.118
521.889
514.996
509.473
505.33
502.567
501.185
501.185
502.567
505.33
509.473
514.996
521.889
530.118
539.548
549.644
558.315
537.684
529.767
520.495
511.821
504.249
497.905
492.822
489.008
486.465
485.194
485.194
486.465
489.008
492.822
497.905
504.249
511.821
520.495
529.767
537.684
517.07
509.891
501.438
493.518
486.602
480.808
476.164
472.681
470.358
469.196
469.196
470.358
472.681
476.164
480.808
486.602
493.518
501.438
509.891
517.07
496.47
490.014
482.376
475.21
468.95
463.704
459.501
456.347
454.244
453.192
453.192
454.244
456.347
459.501
463.704
468.95
475.21
482.376
490.014
496.47
475.884
470.138
463.31
456.897
451.292
446.595
442.832
440.008
438.125
437.183
437.183
438.125
440.008
442.832
446.595
451.292
456.897
463.31
470.138
475.884
455.309
450.262
444.24
438.579
433.629
429.482
426.158
423.663
422
421.169
421.169
422
423.663
426.158
429.482
433.629
438.579
444.24
450.262
455.309
434.745
430.386
425.168
420.257
415.963
412.363
409.479
407.315
405.872
405.15
405.15
405.872
407.315
409.479
412.363
415.963
420.257
425.168
430.386
434.745
414.19
410.51
406.092
401.931
398.292
395.242
392.797
390.963
389.74
389.128
389.128
389.74
390.963
392.797
395.242
398.292
401.931
406.092
410.51
414.19
393.642
390.634
387.014
383.603
380.618
378.116
376.112
374.607
373.604
373.102
373.102
373.604
374.607
376.112
378.116
380.618
383.603
387.014
390.634
393.642
373.101
370.758
367.934
365.272
362.942
360.989
359.424
358.249
357.466
357.074
357.074
357.466
358.249
359.424
360.989
362.942
365.272
367.934
370.758
373.101
352.564
350.883
348.853
346.939
345.263
343.859
342.733
341.889
341.326
341.044
341.044
341.326
341.889
342.733
343.859
345.263
346.939
348.853
350.883
352.564
332.03
331.007
329.771
328.604
327.583
326.728
326.042
325.527
325.184
325.012
325.012
325.184
325.527
326.042
326.728
327.583
328.604
329.771
331.007
332.03
731.118
715.599
698.7
683.168
669.674
658.384
649.343
642.559
638.036
635.775
635.775
638.036
642.559
649.343
658.384
669.674
683.168
698.7
715.599
731.118
709.932
695.367
679.341
664.577
651.742
641.003
632.402
625.948
621.645
619.493
619.493
621.645
625.948
632.402
641.003
651.742
664.577
679.341
695.367
709.932
688.779
675.137
659.977
645.98
633.804
623.615
615.453
609.329
605.247
603.205
603.205
605.247
609.329
615.453
623.615
633.804
645.98
659.977
675.137
688.779
667.659
654.909
640.608
627.376
615.859
606.22
598.498
592.704
588.841
586.91
586.91
588.841
592.704
598.498
606.22
615.859
627.376
640.608
654.909
667.659
646.57
634.682
621.235
608.766
597.908
588.818
581.536
576.072
572.429
570.608
570.608
572.429
576.072
581.536
588.818
597.908
608.766
621.235
634.682
646.57
625.508
614.458
601.857
590.151
579.95
571.41
564.568
559.434
556.011
554.299
554.299
556.011
559.434
564.568
571.41
579.95
590.151
601.857
614.458
625.508
604.472
594.236
582.476
571.53
561.987
553.996
547.593
542.79
539.587
537.985
537.985
539.587
542.79
547.593
553.996
561.987
571.53
582.476
594.236
604.472
583.46
574.017
563.091
552.904
544.018
536.576
530.614
526.14
523.157
521.665
521.665
523.157
526.14
530.614
536.576
544.018
552.904
563.091
574.017
583.46
562.47
553.799
543.703
534.273
526.044
519.151
513.629
509.485
506.722
505.34
505.34
506.722
509.485
513.629
519.151
526.044
534.273
543.703
553.799
562.47
541.5
533.584
524.312
515.638
508.065
501.721
496.639
492.825
490.282
489.01
489.01
490.282
492.825
496.639
501.721
508.065
515.638
524.312
533.584
541.5
520.549
513.37
504.917
496.998
490.082
484.287
479.644
476.16
473.837
472.676
472.676
473.837
476.16
479.644
484.287
490.082
496.998
504.917
513.37
520.549
499.615
493.159
485.52
478.355
472.094
466.849
462.645
459.491
457.388
456.337
456.337
457.388
459.491
462.645
466.849
472.094
478.355
485.52
493.159
499.615
478.695
472.949
466.121
459.708
454.103
449.406
445.643
442.819
440.936
439.994
439.994
440.936
442.819
445.643
449.406
454.103
459.708
466.121
472.949
478.695
457.789
452.741
446.719
441.058
436.109
431.961
428.637
426.143
424.48
423.648
423.648
424.48
426.143
428.637
431.961
436.109
441.058
446.719
452.741
457.789
436.894
432.534
427.316
422.405
418.111
414.512
411.628
409.464
408.02
407.299
407.299
408.02
409.464
411.628
414.512
418.111
422.405
427.316
432.534
436.894
416.009
412.329
407.911
403.75
400.111
397.061
394.616
392.782
391.559
390.947
390.947
391.559
392.782
394.616
397.061
400.111
403.75
407.911
412.329
416.009
395.133
392.124
388.505
385.093
382.109
379.607
377.602
376.098
375.095
374.593
374.593
375.095
376.098
377.602
379.607
382.109
385.093
388.505
392.124
395.133
374.264
371.921
369.097
366.434
364.105
362.152
360.586
359.412
358.629
358.237
358.237
358.629
359.412
360.586
362.152
364.105
366.434
369.097
371.921
374.264
353.4
351.718
349.689
347.774
346.099
344.695
343.569
342.724
342.161
341.88
341.88
342.161
342.724
343.569
344.695
346.099
347.774
349.689
351.718
353.4
332.54
331.516
330.28
329.113
328.092
327.237
326.551
326.036
325.693
325.521
325.521
325.693
326.036
326.551
327.237
328.092
329.113
330.28
331.516
332.54
738.329
722.81
705.91
690.378
676.884
665.595
656.553
649.77
645.247
642.985
642.985
645.247
649.77
656.553
665.595
676.884
690.378
705.91
722.81
738.329
716.783
702.219
686.192
671.429
658.594
647.855
639.253
632.799
628.496
626.345
626.345
628.496
632.799
639.253
647.855
658.594
671.429
686.192
702.219
716.783
695.273
681.63
666.47
652.473
640.298
630.108
621.947
615.823
611.74
609.699
609.699
611.74
615.823
621.947
630.108
640.298
652.473
666.47
681.63
695.273
673.796
661.045
646.745
633.513
621.996
612.356
604.635
598.841
594.978
593.046
593.046
594.978
598.841
604.635
612.356
621.996
633.513
646.745
661.045
673.796
652.351
640.463
627.016
614.547
603.689
594.599
587.317
581.853
578.21
576.389
576.389
578.21
581.853
587.317
594.599
603.689
614.547
627.016
640.463
652.351
630.934
619.884
607.284
595.577
585.377
576.836
569.994
564.86
561.437
559.726
559.726
561.437
564.86
569.994
576.836
585.377
595.577
607.284
619.884
630.934
609.544
599.309
587.549
576.602
567.059
559.068
552.666
547.862
544.659
543.058
543.058
544.659
547.862
552.666
559.068
567.059
576.602
587.549
599.309
609.544
588.18
578.736
567.811
557.623
548.738
541.296
535.333
530.859
527.876
526.385
526.385
527.876
530.859
535.333
541.296
548.738
557.623
567.811
578.736
588.18
566.838
558.167
548.071
538.64
530.412
523.519
517.996
513.852
511.089
509.708
509.708
511.089
513.852
517.996
523.519
530.412
538.64
548.071
558.167
566.838
545.517
537.6
528.328
519.654
512.082
505.738
500.655
496.841
494.298
493.027
493.027
494.298
496.841
500.655
505.738
512.082
519.654
528.328
537.6
545.517
524.215
517.037
508.583
500.664
493.748
487.953
483.31
479.826
477.503
476.342
476.342
477.503
479.826
483.31
487.953
493.748
500.664
508.583
517.037
524.215
502.931
496.475
488.837
481.671
475.411
470.165
465.962
462.808
460.705
459.653
459.653
460.705
462.808
465.962
470.165
475.411
481.671
488.837
496.475
502.931
481.663
475.917
469.089
462.676
457.071
452.374
448.611
445.786
443.903
442.962
442.962
443.903
445.786
448.611
452.374
457.071
462.676
469.089
475.917
481.663
460.408
455.36
449.339
443.678
438.728
434.58
431.256
428.762
427.099
426.268
426.268
427.099
428.762
431.256
434.58
438.728
443.678
449.339
455.36
460.408
439.166
434.806
429.588
424.677
420.383
416.784
413.9
411.735
410.292
409.571
409.571
410.292
411.735
413.9
416.784
420.383
424.677
429.588
434.806
439.166
417.934
414.253
409.836
405.675
402.036
398.985
396.541
394.706
393.483
392.872
392.872
393.483
394.706
396.541
398.985
402.036
405.675
409.836
414.253
417.934
396.711
393.702
390.083
386.671
383.687
381.185
379.18
377.676
376.673
376.171
376.171
376.673
377.676
379.18
381.185
383.687
386.671
390.083
393.702
396.711
375.495
373.153
370.329
367.666
365.336
363.383
361.818
360.643
359.86
359.469
359.469
359.86
360.643
361.818
363.383
365.336
367.666
370.329
373.153
375.495
354.285
352.604
350.574
348.66
346.984
345.58
344.454
343.61
343.047
342.765
342.765
343.047
343.61
344.454
345.58
346.984
348.66
350.574
352.604
354.285
333.079
332.056
330.819
329.653
328.632
327.776
327.09
326.576
326.232
326.061
326.061
326.232
326.576
327.09
327.776
328.632
329.653
330.819
332.056
333.079
745.65
730.131
713.231
697.7
684.205
672.916
663.875
657.091
652.568
650.306
650.306
652.568
657.091
663.875
672.916
684.205
697.7
713.231
730.131
745.65
723.745
709.18
693.154
678.39
665.556
654.816
646.215
639.761
635.458
633.307
633.307
635.458
639.761
646.215
654.816
665.556
678.39
693.154
709.18
723.745
701.876
688.233
673.073
659.076
646.901
636.711
628.549
622.426
618.343
616.301
616.301
618.343
622.426
628.549
636.711
646.901
659.076
673.073
688.233
701.876
680.04
667.289
652.989
639.757
628.24
618.6
610.879
605.085
601.222
599.29
599.29
601.222
605.085
610.879
618.6
628.24
639.757
652.989
667.289
680.04
658.236
646.349
632.902
620.433
609.575
600.485
593.203
587.739
584.096
582.274
582.274
584.096
587.739
593.203
600.485
609.575
620.433
632.902
646.349
658.236
636.462
625.412
612.812
601.105
590.904
582.364
575.522
570.388
566.965
565.254
565.254
566.965
570.388
575.522
582.364
590.904
601.105
612.812
625.412
636.462
614.715
604.479
592.719
581.773
572.23
564.239
557.836
553.033
549.83
548.228
548.228
549.83
553.033
557.836
564.239
572.23
581.773
592.719
604.479
614.715
592.993
583.55
572.624
562.437
553.551
546.109
540.147
535.673
532.69
531.198
531.198
532.69
535.673
540.147
546.109
553.551
562.437
572.624
583.55
592.993
571.295
562.624
552.528
543.097
534.868
527.976
522.453
518.309
515.546
514.165
514.165
515.546
518.309
522.453
527.976
534.868
543.097
552.528
562.624
571.295
549.618
541.701
532.429
523.755
516.182
509.839
504.756
500.942
498.399
497.127
497.127
498.399
500.942
504.756
509.839
516.182
523.755
532.429
541.701
549.618
527.96
520.781
512.328
504.409
497.493
491.698
487.055
483.571
481.248
480.086
480.086
481.248
483.571
487.055
491.698
497.493
504.409
512.328
520.781
527.96
506.32
499.864
492.226
485.06
478.8
473.554
469.351
466.197
464.094
463.042
463.042
464.094
466.197
469.351
473.554
478.8
485.06
492.226
499.864
506.32
484.696
478.951
472.122
465.709
460.105
455.408
451.644
448.82
446.937
445.996
445.996
446.937
448.82
451.644
455.408
460.105
465.709
472.122
478.951
484.696
463.087
458.039
452.018
446.356
441.407
437.259
433.935
431.441
429.778
428.946
428.946
429.778
431.441
433.935
437.259
441.407
446.356
452.018
458.039
463.087
441.49
437.13
431.912
427.001
422.707
419.108
416.224
414.059
412.616
411.895
411.895
412.616
414.059
416.224
419.108
422.707
427.001
431.912
437.13
441.49
419.903
416.223
411.805
407.644
404.005
400.955
398.51
396.676
395.453
394.841
394.841
395.453
396.676
398.51
400.955
404.005
407.644
411.805
416.223
419.903
398.326
395.317
391.698
388.286
385.301
382.8
380.795
379.29
378.287
377.786
377.786
378.287
379.29
380.795
382.8
385.301
388.286
391.698
395.317
398.326
376.756
374.413
371.589
368.927
366.597
364.644
363.078
361.904
361.121
360.729
360.729
361.121
361.904
363.078
364.644
366.597
368.927
371.589
374.413
376.756
355.191
353.51
351.481
349.566
347.891
346.486
345.361
344.516
343.953
343.672
343.672
343.953
344.516
345.361
346.486
347.891
349.566
351.481
353.51
355.191
333.631
332.608
331.372
330.205
329.184
328.328
327.643
327.128
326.785
326.613
326.613
326.785
327.128
327.643
328.328
329.184
330.205
331.372
332.608
333.631
753.018
737.499
720.599
705.067
691.573
680.284
671.242
664.459
659.936
657.674
657.674
659.936
664.459
671.242
680.284
691.573
705.067
720.599
737.499
753.018
730.753
716.188
700.162
685.398
672.564
661.825
653.223
646.769
642.466
640.315
640.315
642.466
646.769
653.223
661.825
672.564
685.398
700.162
716.188
730.753
708.524
694.882
679.721
665.725
653.549
643.36
635.198
629.074
624.991
622.95
622.95
624.991
629.074
635.198
643.36
653.549
665.725
679.721
694.882
708.524
686.329
673.578
659.278
646.046
634.529
624.889
617.168
611.374
607.511
605.579
605.579
607.511
611.374
617.168
624.889
634.529
646.046
659.278
673.578
686.329
664.166
652.279
638.831
626.363
615.504
606.414
599.132
593.669
590.026
588.204
588.204
590.026
593.669
599.132
606.414
615.504
626.363
638.831
652.279
664.166
642.033
630.983
618.382
606.676
596.475
587.935
581.092
575.959
572.536
570.824
570.824
572.536
575.959
581.092
587.935
596.475
606.676
618.382
630.983
642.033
619.927
609.691
597.931
586.985
577.442
569.45
563.048
558.244
555.041
553.44
553.44
555.041
558.244
563.048
569.45
577.442
586.985
597.931
609.691
619.927
597.846
588.403
577.477
567.29
558.404
550.962
545
540.526
537.543
536.051
536.051
537.543
540.526
545
550.962
558.404
567.29
577.477
588.403
597.846
575.789
567.118
557.022
547.592
539.363
532.47
526.948
522.804
520.041
518.659
518.659
520.041
522.804
526.948
532.47
539.363
547.592
557.022
567.118
575.789
553.754
545.837
536.565
527.891
520.318
513.975
508.892
505.078
502.535
501.263
501.263
502.535
505.078
508.892
513.975
520.318
527.891
536.565
545.837
553.754
531.738
524.559
516.106
508.187
501.27
495.476
490.833
487.349
485.026
483.864
483.864
485.026
487.349
490.833
495.476
501.27
508.187
516.106
524.559
531.738
509.74
503.284
495.645
488.48
482.22
476.974
472.771
469.617
467.514
466.462
466.462
467.514
469.617
472.771
476.974
482.22
488.48
495.645
503.284
509.74
487.758
482.012
475.184
468.771
463.166
458.469
454.706
451.882
449.999
449.057
449.057
449.999
451.882
454.706
458.469
463.166
468.771
475.184
482.012
487.758
465.79
460.743
454.721
449.06
444.11
439.963
436.639
434.144
432.481
431.65
431.65
432.481
434.144
436.639
439.963
444.11
449.06
454.721
460.743
465.79
443.835
439.476
434.258
429.347
425.053
421.453
418.569
416.405
414.962
414.24
414.24
414.962
416.405
418.569
421.453
425.053
429.347
434.258
439.476
443.835
421.891
418.211
413.793
409.632
405.993
402.943
400.498
398.664
397.441
396.829
396.829
397.441
398.664
400.498
402.943
405.993
409.632
413.793
418.211
421.891
399.956
396.948
393.328
389.916
386.932
384.43
382.425
380.921
379.918
379.416
379.416
379.918
380.921
382.425
384.43
386.932
389.916
393.328
396.948
399.956
378.028
375.686
372.862
370.199
367.869
365.916
364.351
363.177
362.394
362.002
362.002
362.394
363.177
364.351
365.916
367.869
370.199
372.862
375.686
378.028
356.107
354.425
352.396
350.481
348.806
347.402
346.276
345.431
344.868
344.587
344.587
344.868
345.431
346.276
347.402
348.806
350.481
352.396
354.425
356.107
334.189
333.166
331.929
330.763
329.742
328.886
328.2
327.686
327.342
327.171
327.171
327.342
327.686
328.2
328.886
329.742
330.763
331.929
333.166
334.189
760.405
744.886
727.987
712.455
698.961
687.671
678.63
671.846
667.323
665.062
665.062
667.323
671.846
678.63
687.671
698.961
712.455
727.987
744.886
760.405
737.78
723.216
707.189
692.426
679.591
668.852
660.25
653.797
649.494
647.342
647.342
649.494
653.797
660.25
668.852
679.591
692.426
707.189
723.216
737.78
715.192
701.549
686.389
672.392
660.217
650.027
641.865
635.742
631.659
629.617
629.617
631.659
635.742
641.865
650.027
660.217
672.392
686.389
701.549
715.192
692.637
679.886
665.586
652.354
640.837
631.197
623.475
617.682
613.819
611.887
611.887
613.819
617.682
623.475
631.197
640.837
652.354
665.586
679.886
692.637
670.114
658.227
644.78
632.311
621.453
612.362
605.081
599.617
595.974
594.152
594.152
595.974
599.617
605.081
612.362
621.453
632.311
644.78
658.227
670.114
647.621
636.572
623.971
612.264
602.064
593.523
586.681
581.547
578.124
576.413
576.413
578.124
581.547
586.681
593.523
602.064
612.264
623.971
636.572
647.621
625.156
614.92
603.16
592.214
582.671
574.679
568.277
563.473
560.27
558.669
558.669
560.27
563.473
568.277
574.679
582.671
592.214
603.16
614.92
625.156
602.716
593.272
582.347
572.159
563.274
555.832
549.869
545.396
542.413
540.921
540.921
542.413
545.396
549.869
555.832
563.274
572.159
582.347
593.272
602.716
580.299
571.628
561.532
552.102
543.873
536.98
531.458
527.314
524.551
523.169
523.169
524.551
527.314
531.458
536.98
543.873
552.102
561.532
571.628
580.299
557.904
549.988
540.715
532.041
524.469
518.125
513.043
509.229
506.686
505.414
505.414
506.686
509.229
513.043
518.125
524.469
532.041
540.715
549.988
557.904
535.529
528.35
519.897
511.978
505.062
499.267
494.624
491.14
488.817
487.656
487.656
488.817
491.14
494.624
499.267
505.062
511.978
519.897
528.35
535.529
513.172
506.716
499.078
491.912
485.652
480.406
476.203
473.049
470.946
469.894
469.894
470.946
473.049
476.203
480.406
485.652
491.912
499.078
506.716
513.172
490.831
485.085
478.257
471.844
466.239
461.543
457.779
454.955
453.072
452.13
452.13
453.072
454.955
457.779
461.543
466.239
471.844
478.257
485.085
490.831
468.504
463.457
457.435
451.774
446.824
442.677
439.353
436.858
435.195
434.364
434.364
435.195
436.858
439.353
442.677
446.824
451.774
457.435
463.457
468.504
446.19
441.831
436.613
431.702
427.408
423.808
420.924
418.76
417.317
416.595
416.595
417.317
418.76
420.924
423.808
427.408
431.702
436.613
441.831
446.19
423.887
420.207
415.789
411.628
407.989
404.938
402.494
400.66
399.437
398.825
398.825
399.437
400.66
402.494
404.938
407.989
411.628
415.789
420.207
423.887
401.593
398.584
394.965
391.553
388.569
386.067
384.062
382.558
381.555
381.053
381.053
381.555
382.558
384.062
386.067
388.569
391.553
394.965
398.584
401.593
379.306
376.964
374.14
371.477
369.147
367.194
365.629
364.455
363.671
363.28
363.28
363.671
364.455
365.629
367.194
369.147
371.477
374.14
376.964
379.306
357.026
355.344
353.315
351.4
349.725
348.321
347.195
346.35
345.787
345.506
345.506
345.787
346.35
347.195
348.321
349.725
351.4
353.315
355.344
357.026
334.749
333.726
332.489
331.323
330.302
329.446
328.76
328.246
327.902
327.731
327.731
327.902
328.246
328.76
329.446
330.302
331.323
332.489
333.726
334.749
767.801
752.282
735.382
719.85
706.356
695.067
686.025
679.242
674.719
672.457
672.457
674.719
679.242
686.025
695.067
706.356
719.85
735.382
752.282
767.801
744.816
730.251
714.225
699.461
686.627
675.888
667.286
660.832
656.529
654.378
654.378
656.529
660.832
667.286
675.888
686.627
699.461
714.225
730.251
744.816
721.867
708.225
693.065
679.068
666.892
656.703
648.541
642.417
638.334
636.293
636.293
638.334
642.417
648.541
656.703
666.892
679.068
693.065
708.225
721.867
698.953
686.202
671.901
658.669
647.153
637.513
629.791
623.997
620.135
618.203
618.203
620.135
623.997
629.791
637.513
647.153
658.669
671.901
686.202
698.953
676.07
664.183
650.735
638.267
627.408
618.318
611.036
605.573
601.93
600.108
600.108
601.93
605.573
611.036
618.318
627.408
638.267
650.735
664.183
676.07
653.217
642.168
629.567
617.86
607.66
599.119
592.277
587.143
583.72
582.009
582.009
583.72
587.143
592.277
599.119
607.66
617.86
629.567
642.168
653.217
630.392
620.156
608.396
597.45
587.907
579.916
573.513
568.71
565.507
563.905
563.905
565.507
568.71
573.513
579.916
587.907
597.45
608.396
620.156
630.392
607.592
598.149
587.223
577.036
568.15
560.708
554.746
550.272
547.289
545.797
545.797
547.289
550.272
554.746
560.708
568.15
577.036
587.223
598.149
607.592
584.816
576.145
566.049
556.619
548.39
541.497
535.974
531.831
529.068
527.686
527.686
529.068
531.831
535.974
541.497
548.39
556.619
566.049
576.145
584.816
562.061
554.145
544.872
536.198
528.626
522.282
517.2
513.386
510.843
509.571
509.571
510.843
513.386
517.2
522.282
528.626
536.198
544.872
554.145
562.061
539.327
532.148
523.695
515.775
508.859
503.065
498.421
494.938
492.615
491.453
491.453
492.615
494.938
498.421
503.065
508.859
515.775
523.695
532.148
539.327
516.61
510.154
502.515
495.35
489.089
483.844
479.641
476.486
474.383
473.332
473.332
474.383
476.486
479.641
483.844
489.089
495.35
502.515
510.154
516.61
493.909
488.163
481.335
474.922
469.317
464.621
460.857
458.033
456.15
455.208
455.208
456.15
458.033
460.857
464.621
469.317
474.922
481.335
488.163
493.909
471.223
466.175
460.154
454.492
449.543
445.395
442.071
439.577
437.914
437.082
437.082
437.914
439.577
442.071
445.395
449.543
454.492
460.154
466.175
471.223
448.549
444.189
438.971
434.061
429.766
426.167
423.283
421.119
419.676
418.954
418.954
419.676
421.119
423.283
426.167
429.766
434.061
438.971
444.189
448.549
425.886
422.206
417.788
413.627
409.988
406.938
404.493
402.659
401.436
400.824
400.824
401.436
402.659
404.493
406.938
409.988
413.627
417.788
422.206
425.886
403.232
400.224
396.604
393.193
390.208
387.707
385.702
384.197
383.194
382.693
382.693
383.194
384.197
385.702
387.707
390.208
393.193
396.604
400.224
403.232
380.586
378.244
375.42
372.757
370.427
368.474
366.909
365.735
364.951
364.56
364.56
364.951
365.735
366.909
368.474
370.427
372.757
375.42
378.244
380.586
357.946
356.265
354.235
352.321
350.645
349.241
348.115
347.271
346.708
346.426
346.426
346.708
347.271
348.115
349.241
350.645
352.321
354.235
356.265
357.946
335.31
334.287
333.05
331.884
330.863
330.007
329.321
328.806
328.463
328.292
328.292
328.463
328.806
329.321
330.007
330.863
331.884
333.05
334.287
335.31
775.199
759.68
742.781
727.249
713.755
702.466
693.424
686.64
682.117
679.856
679.856
682.117
686.64
693.424
702.466
713.755
727.249
742.781
759.68
775.199
751.855
737.29
721.264
706.5
693.665
682.926
674.325
667.871
663.568
661.416
661.416
663.568
667.871
674.325
682.926
693.665
706.5
721.264
737.29
751.855
728.546
714.904
699.743
685.746
673.571
663.382
655.22
649.096
645.013
642.972
642.972
645.013
649.096
655.22
663.382
673.571
685.746
699.743
714.904
728.546
705.272
692.521
678.22
664.988
653.471
643.832
636.11
630.316
626.453
624.522
624.522
626.453
630.316
636.11
643.832
653.471
664.988
678.22
692.521
705.272
682.029
670.142
656.694
644.226
633.367
624.277
616.995
611.532
607.889
606.067
606.067
607.889
611.532
616.995
624.277
633.367
644.226