/*--------------------------------*- C++ -*----------------------------------*\
| =========                 |                                                 |
| \\      /  F ield         | OpenFOAM: The Open Source CFD Toolbox           |
|  \\    /   O peration     | Version:  v1812                                 |
|   \\  /    A nd           | Web:      www.OpenFOAM.com                      |
|    \\/     M anipulation  |                                                 |
\*---------------------------------------------------------------------------*/
FoamFile
{
    version     2.0;
    format      ascii;
    class       volScalarField;
    location    "0.2";
    object      T;
}
// * * * * * * * * * * * * * * * * * * * * * * * * * * * * * * * * * * * * * //

dimensions      [0 0 0 1 0 0 0];


internalField   nonuniform List<scalar> 
8000
(
-9.79648e-05
-0.000108933
-0.000122796
-0.000137794
-0.000153304
-0.000168953
-0.000184407
-0.00019933
-0.000213375
-0.000226199
-0.000237472
-0.000246895
-0.000254206
-0.000259201
-0.000261737
-0.000261747
-0.000259252
-0.000254413
-0.000247713
-0.000240739
-9.34704e-05
-0.000103802
-0.000116974
-0.000131247
-0.000146013
-0.000160912
-0.000175626
-0.000189833
-0.000203204
-0.000215413
-0.000226145
-0.000235115
-0.000242075
-0.00024683
-0.000249245
-0.000249255
-0.000246882
-0.000242281
-0.000235929
-0.000229389
-8.89334e-05
-9.86455e-05
-0.000111128
-0.000124675
-0.000138695
-0.000152842
-0.000166813
-0.000180303
-0.000193
-0.000204591
-0.000214782
-0.000223298
-0.000229906
-0.000234421
-0.000236713
-0.000236723
-0.000234472
-0.00023011
-0.000224102
-0.000217982
-8.43566e-05
-9.34645e-05
-0.000105259
-0.00011808
-0.000131352
-0.000144746
-0.000157973
-0.000170744
-0.000182763
-0.000193737
-0.000203384
-0.000211446
-0.000217702
-0.000221975
-0.000224145
-0.000224155
-0.000222025
-0.000217902
-0.000212236
-0.000206521
-7.97425e-05
-8.82607e-05
-9.93693e-05
-0.000111463
-0.000123986
-0.000136624
-0.000149106
-0.000161157
-0.000172498
-0.000182852
-0.000191955
-0.000199562
-0.000205464
-0.000209496
-0.000211544
-0.000211553
-0.000209545
-0.00020566
-0.000200333
-0.000195009
-7.50939e-05
-8.30356e-05
-9.34606e-05
-0.000104826
-0.000116599
-0.000128481
-0.000140215
-0.000151544
-0.000162206
-0.00017194
-0.000180497
-0.000187648
-0.000193196
-0.000196987
-0.000198912
-0.000198921
-0.000197034
-0.000193386
-0.000188397
-0.000183452
-7.04131e-05
-7.77905e-05
-8.7534e-05
-9.81706e-05
-0.000109192
-0.000120316
-0.000131301
-0.000141907
-0.000151889
-0.000161002
-0.000169012
-0.000175706
-0.000180901
-0.000184449
-0.000186251
-0.00018626
-0.000184495
-0.000181084
-0.000176429
-0.000171852
-6.57026e-05
-7.2527e-05
-8.1591e-05
-9.14983e-05
-0.000101767
-0.000112132
-0.000122367
-0.00013225
-0.00014155
-0.00015004
-0.000157503
-0.00016374
-0.00016858
-0.000171886
-0.000173565
-0.000173573
-0.00017193
-0.000168755
-0.000164432
-0.000160212
-6.09647e-05
-6.72463e-05
-7.56328e-05
-8.48106e-05
-9.43255e-05
-0.00010393
-0.000113415
-0.000122572
-0.00013119
-0.000139057
-0.000145973
-0.000151752
-0.000156236
-0.000159299
-0.000160855
-0.000160863
-0.000159341
-0.000156403
-0.000152409
-0.000148536
-5.62016e-05
-6.19498e-05
-6.96608e-05
-7.81086e-05
-8.68689e-05
-9.5712e-05
-0.000104445
-0.000112877
-0.000120811
-0.000128054
-0.000134422
-0.000139742
-0.000143871
-0.000146691
-0.000148124
-0.000148131
-0.00014673
-0.000144028
-0.000140361
-0.000136828
-5.14155e-05
-5.66389e-05
-6.36761e-05
-7.13938e-05
-7.93987e-05
-8.74797e-05
-9.54602e-05
-0.000103165
-0.000110415
-0.000117034
-0.000122852
-0.000127714
-0.000131487
-0.000134064
-0.000135373
-0.00013538
-0.000134101
-0.000131633
-0.000128291
-0.000125089
-4.66086e-05
-5.13149e-05
-5.76801e-05
-6.46673e-05
-7.19163e-05
-7.92343e-05
-8.64613e-05
-9.34384e-05
-0.000100004
-0.000105998
-0.000111267
-0.000115669
-0.000119086
-0.000121419
-0.000122605
-0.000122611
-0.000121453
-0.000119221
-0.000116201
-0.000113324
-4.17831e-05
-4.5979e-05
-5.16738e-05
-5.79305e-05
-6.44227e-05
-7.09771e-05
-7.745e-05
-8.3699e-05
-8.95795e-05
-9.49478e-05
-9.96664e-05
-0.00010361
-0.000106669
-0.000108759
-0.000109821
-0.000109827
-0.00010879
-0.000106792
-0.000104094
-0.000101534
-3.69409e-05
-4.06325e-05
-4.56585e-05
-5.11844e-05
-5.69195e-05
-6.27096e-05
-6.84277e-05
-7.3948e-05
-7.91427e-05
-8.38849e-05
-8.80532e-05
-9.15364e-05
-9.42391e-05
-9.60854e-05
-9.70232e-05
-9.70285e-05
-9.6113e-05
-9.43497e-05
-9.19705e-05
-8.97227e-05
-3.2084e-05
-3.52768e-05
-3.96351e-05
-4.44303e-05
-4.94076e-05
-5.44329e-05
-5.93957e-05
-6.41868e-05
-6.86953e-05
-7.28111e-05
-7.64286e-05
-7.94517e-05
-8.17973e-05
-8.33996e-05
-8.42136e-05
-8.42182e-05
-8.34239e-05
-8.18945e-05
-7.98332e-05
-7.78925e-05
-2.72146e-05
-2.99129e-05
-3.36049e-05
-3.76692e-05
-4.18884e-05
-4.61485e-05
-5.03555e-05
-5.4417e-05
-5.82389e-05
-6.17278e-05
-6.47944e-05
-6.7357e-05
-6.93454e-05
-7.07036e-05
-7.13936e-05
-7.13976e-05
-7.07245e-05
-6.94287e-05
-6.76838e-05
-6.60462e-05
-2.23345e-05
-2.45423e-05
-2.75688e-05
-3.09022e-05
-3.43631e-05
-3.78574e-05
-4.13084e-05
-4.46398e-05
-4.77748e-05
-5.06366e-05
-5.3152e-05
-5.5254e-05
-5.68849e-05
-5.7999e-05
-5.8565e-05
-5.85683e-05
-5.80163e-05
-5.69539e-05
-5.55244e-05
-5.41861e-05
-1.74457e-05
-1.91661e-05
-2.15281e-05
-2.41305e-05
-2.68327e-05
-2.95611e-05
-3.22555e-05
-3.48567e-05
-3.73045e-05
-3.95389e-05
-4.15029e-05
-4.31441e-05
-4.44175e-05
-4.52874e-05
-4.57293e-05
-4.57319e-05
-4.5301e-05
-4.44718e-05
-4.33567e-05
-4.2315e-05
-1.25501e-05
-1.37855e-05
-1.54836e-05
-1.7355e-05
-1.92983e-05
-2.12605e-05
-2.31983e-05
-2.5069e-05
-2.68293e-05
-2.84362e-05
-2.98487e-05
-3.1029e-05
-3.19447e-05
-3.25703e-05
-3.28881e-05
-3.289e-05
-3.25801e-05
-3.1984e-05
-3.11827e-05
-3.04351e-05
-7.64966e-06
-8.40188e-06
-9.43646e-06
-1.05769e-05
-1.17612e-05
-1.29569e-05
-1.41379e-05
-1.52779e-05
-1.63507e-05
-1.733e-05
-1.81907e-05
-1.891e-05
-1.94681e-05
-1.98493e-05
-2.0043e-05
-2.00442e-05
-1.98553e-05
-1.94921e-05
-1.9004e-05
-1.8549e-05
-0.000100566
-0.000111853
-0.0001261
-0.000141506
-0.000157436
-0.000173507
-0.00018938
-0.000204706
-0.000219131
-0.000232302
-0.000243881
-0.000253558
-0.000261067
-0.000266197
-0.000268802
-0.000268812
-0.000266249
-0.000261277
-0.000254387
-0.000247204
-9.58854e-05
-0.00010651
-0.000120036
-0.000134687
-0.000149842
-0.000165133
-0.000180234
-0.000194815
-0.000208539
-0.000221069
-0.000232084
-0.00024129
-0.000248433
-0.000253313
-0.000255791
-0.000255801
-0.000253365
-0.000248642
-0.000242115
-0.000235384
-9.11733e-05
-0.000101154
-0.000113963
-0.00012786
-0.00014224
-0.00015675
-0.00017108
-0.000184916
-0.000197938
-0.000209827
-0.000220279
-0.000229014
-0.000235792
-0.000240422
-0.000242773
-0.000242783
-0.000240473
-0.000235998
-0.000229829
-0.000223534
-8.64311e-05
-9.57845e-05
-0.000107881
-0.000121025
-0.00013463
-0.000148359
-0.000161917
-0.000175008
-0.000187328
-0.000198577
-0.000208466
-0.00021673
-0.000223142
-0.000227523
-0.000229748
-0.000229757
-0.000227573
-0.000223345
-0.000217531
-0.000211657
-8.16603e-05
-9.04028e-05
-0.00010179
-0.000114181
-0.000127011
-0.000139959
-0.000152746
-0.000165092
-0.000176711
-0.000187319
-0.000196644
-0.000204438
-0.000210485
-0.000214616
-0.000216714
-0.000216723
-0.000214665
-0.000210683
-0.00020522
-0.000199752
-7.68628e-05
-8.50091e-05
-9.56897e-05
-0.000107329
-0.000119385
-0.000131551
-0.000143567
-0.000155168
-0.000166085
-0.000176053
-0.000184815
-0.000192138
-0.000197819
-0.000201701
-0.000203672
-0.000203681
-0.000201749
-0.000198012
-0.000192897
-0.000187821
-7.20402e-05
-7.96038e-05
-8.95816e-05
-0.00010047
-0.000111751
-0.000123136
-0.00013438
-0.000145236
-0.000155452
-0.000164779
-0.000172978
-0.00017983
-0.000185146
-0.000188778
-0.000190623
-0.000190632
-0.000188825
-0.000185332
-0.000180562
-0.000175866
-6.7194e-05
-7.41875e-05
-8.34655e-05
-9.36031e-05
-0.000104109
-0.000114713
-0.000125185
-0.000135296
-0.000144811
-0.000153498
-0.000161133
-0.000167515
-0.000172466
-0.000175848
-0.000177566
-0.000177575
-0.000175893
-0.000172643
-0.000168216
-0.000163888
-6.23261e-05
-6.87606e-05
-7.73419e-05
-8.67294e-05
-9.64608e-05
-0.000106283
-0.000115984
-0.000125349
-0.000134163
-0.000142209
-0.000149281
-0.000155192
-0.000159778
-0.000162911
-0.000164502
-0.00016451
-0.000162953
-0.000159947
-0.000155858
-0.000151889
-5.7438e-05
-6.33239e-05
-7.12112e-05
-7.98493e-05
-8.88059e-05
-9.78468e-05
-0.000106775
-0.000115395
-0.000123507
-0.000130913
-0.000137423
-0.000142863
-0.000147084
-0.000149967
-0.000151432
-0.000151439
-0.000150007
-0.000147243
-0.00014349
-0.000139869
-5.25313e-05
-5.7878e-05
-6.5074e-05
-7.2963e-05
-8.11449e-05
-8.94042e-05
-9.75607e-05
-0.000105435
-0.000112846
-0.000119611
-0.000125558
-0.000130527
-0.000134383
-0.000137017
-0.000138355
-0.000138362
-0.000137054
-0.000134531
-0.000131112
-0.000127832
-4.76078e-05
-5.24236e-05
-5.89306e-05
-6.60711e-05
-7.34782e-05
-8.09557e-05
-8.83403e-05
-9.54695e-05
-0.000102178
-0.000108303
-0.000113686
-0.000118185
-0.000121676
-0.00012406
-0.000125272
-0.000125278
-0.000124095
-0.000121813
-0.000118725
-0.000115778
-4.2669e-05
-4.69614e-05
-5.27817e-05
-5.91741e-05
-6.58064e-05
-7.25021e-05
-7.91144e-05
-8.54981e-05
-9.15054e-05
-9.69895e-05
-0.00010181
-0.000105838
-0.000108964
-0.000111099
-0.000112183
-0.000112189
-0.00011113
-0.000109088
-0.000106329
-0.000103708
-3.77165e-05
-4.14922e-05
-4.66278e-05
-5.22724e-05
-5.813e-05
-6.40437e-05
-6.98838e-05
-7.55219e-05
-8.08275e-05
-8.5671e-05
-8.99282e-05
-9.34859e-05
-9.62463e-05
-9.8132e-05
-9.90898e-05
-9.90952e-05
-9.81599e-05
-9.63581e-05
-9.39259e-05
-9.16254e-05
-3.2752e-05
-3.60167e-05
-4.04694e-05
-4.53666e-05
-5.04494e-05
-5.55811e-05
-6.06489e-05
-6.55413e-05
-7.01452e-05
-7.43481e-05
-7.80422e-05
-8.11293e-05
-8.35246e-05
-8.51608e-05
-8.5992e-05
-8.59967e-05
-8.51854e-05
-8.36229e-05
-8.1516e-05
-7.95303e-05
-2.77771e-05
-3.05358e-05
-3.4307e-05
-3.84572e-05
-4.27652e-05
-4.71148e-05
-5.14102e-05
-5.55569e-05
-5.94591e-05
-6.30213e-05
-6.61524e-05
-6.87689e-05
-7.0799e-05
-7.21858e-05
-7.28903e-05
-7.28943e-05
-7.22069e-05
-7.08833e-05
-6.91002e-05
-6.74248e-05
-2.27934e-05
-2.50503e-05
-2.81414e-05
-3.15448e-05
-3.5078e-05
-3.86453e-05
-4.21683e-05
-4.55693e-05
-4.87697e-05
-5.16913e-05
-5.42592e-05
-5.64051e-05
-5.80701e-05
-5.92075e-05
-5.97853e-05
-5.97886e-05
-5.92249e-05
-5.81399e-05
-5.66793e-05
-5.53103e-05
-1.78025e-05
-1.95609e-05
-2.1973e-05
-2.46298e-05
-2.73882e-05
-3.01733e-05
-3.29237e-05
-3.5579e-05
-3.80776e-05
-4.03585e-05
-4.23633e-05
-4.40386e-05
-4.53385e-05
-4.62265e-05
-4.66775e-05
-4.66802e-05
-4.62402e-05
-4.53934e-05
-4.42542e-05
-4.31887e-05
-1.28059e-05
-1.40685e-05
-1.58025e-05
-1.77129e-05
-1.96965e-05
-2.16993e-05
-2.36772e-05
-2.55866e-05
-2.73834e-05
-2.90236e-05
-3.04652e-05
-3.167e-05
-3.26047e-05
-3.32433e-05
-3.35677e-05
-3.35696e-05
-3.32532e-05
-3.26444e-05
-3.18258e-05
-3.10613e-05
-7.80522e-06
-8.57395e-06
-9.63037e-06
-1.07945e-05
-1.20033e-05
-1.32238e-05
-1.44291e-05
-1.55927e-05
-1.66876e-05
-1.76871e-05
-1.85657e-05
-1.92998e-05
-1.98694e-05
-2.02586e-05
-2.04562e-05
-2.04574e-05
-2.02646e-05
-1.98937e-05
-1.93951e-05
-1.89298e-05
-0.000103924
-0.000115608
-0.000130342
-0.00014627
-0.000162738
-0.000179352
-0.00019576
-0.000211604
-0.000226516
-0.000240131
-0.000252101
-0.000262105
-0.000269868
-0.000275171
-0.000277864
-0.000277874
-0.000275224
-0.000270081
-0.000262954
-0.000255513
-9.90571e-05
-0.000110052
-0.000124036
-0.000139179
-0.000154841
-0.000170643
-0.000186249
-0.000201318
-0.0002155
-0.00022845
-0.000239833
-0.000249347
-0.00025673
-0.000261773
-0.000264334
-0.000264344
-0.000261826
-0.000256942
-0.000250191
-0.000243222
-9.41617e-05
-0.000104487
-0.000117726
-0.000132086
-0.000146943
-0.000161933
-0.000176738
-0.000191032
-0.000204486
-0.000216769
-0.000227567
-0.000236592
-0.000243595
-0.000248378
-0.000250808
-0.000250818
-0.000248431
-0.000243805
-0.000237426
-0.00023091
-8.92391e-05
-9.89127e-05
-0.000111412
-0.000124989
-0.000139042
-0.000153221
-0.000167225
-0.000180746
-0.000193471
-0.00020509
-0.000215303
-0.000223839
-0.000230462
-0.000234986
-0.000237284
-0.000237294
-0.000235038
-0.000230668
-0.000224658
-0.000218579
-8.42911e-05
-9.33304e-05
-0.000105093
-0.00011789
-0.000131138
-0.000144508
-0.000157711
-0.000170459
-0.000182457
-0.000193411
-0.00020304
-0.000211087
-0.000217331
-0.000221597
-0.000223763
-0.000223773
-0.000221647
-0.000217533
-0.000211888
-0.00020623
-7.93191e-05
-8.77398e-05
-9.87705e-05
-0.000110788
-0.000123233
-0.000135793
-0.000148196
-0.000160172
-0.000171443
-0.000181732
-0.000190777
-0.000198337
-0.000204202
-0.000208209
-0.000210244
-0.000210253
-0.000208258
-0.000204398
-0.000199114
-0.000193863
-7.43249e-05
-8.21413e-05
-9.24436e-05
-0.000103682
-0.000115325
-0.000127076
-0.00013868
-0.000149884
-0.000160428
-0.000170054
-0.000178516
-0.000185588
-0.000191075
-0.000194823
-0.000196727
-0.000196736
-0.00019487
-0.000191264
-0.000186337
-0.000181481
-6.93097e-05
-7.65352e-05
-8.61129e-05
-9.65746e-05
-0.000107415
-0.000118357
-0.000129163
-0.000139595
-0.000149413
-0.000158376
-0.000166255
-0.000172839
-0.000177948
-0.000181439
-0.000183211
-0.00018322
-0.000181484
-0.00017813
-0.000173557
-0.000169083
-6.42753e-05
-7.09219e-05
-7.97785e-05
-8.94642e-05
-9.95035e-05
-0.000109637
-0.000119644
-0.000129305
-0.000138397
-0.000146698
-0.000153994
-0.000160092
-0.000164823
-0.000168055
-0.000169697
-0.000169705
-0.000168098
-0.000164995
-0.000160773
-0.000156671
-5.92231e-05
-6.53017e-05
-7.34406e-05
-8.23512e-05
-9.15895e-05
-0.000100915
-0.000110124
-0.000119015
-0.000127381
-0.00013502
-0.000141734
-0.000147345
-0.000151699
-0.000154673
-0.000156183
-0.000156191
-0.000154713
-0.000151861
-0.000147987
-0.000144245
-5.41546e-05
-5.96752e-05
-6.70994e-05
-7.52359e-05
-8.36736e-05
-9.21909e-05
-0.000100602
-0.000108723
-0.000116365
-0.000123341
-0.000129474
-0.000134598
-0.000138575
-0.000141291
-0.000142671
-0.000142678
-0.000141329
-0.000138726
-0.000135197
-0.000131808
-4.90711e-05
-5.40428e-05
-6.07551e-05
-6.81184e-05
-7.57559e-05
-8.34658e-05
-9.10797e-05
-9.84305e-05
-0.000105348
-0.000111663
-0.000117214
-0.000121852
-0.000125451
-0.00012791
-0.000129159
-0.000129166
-0.000127945
-0.000125591
-0.000122404
-0.00011936
-4.39742e-05
-4.84049e-05
-5.44079e-05
-6.09988e-05
-6.78365e-05
-7.47392e-05
-8.1556e-05
-8.81371e-05
-9.43302e-05
-9.99838e-05
-0.000104953
-0.000109106
-0.000112328
-0.000114529
-0.000115648
-0.000115654
-0.000114561
-0.000112456
-0.000109608
-0.000106902
-3.88654e-05
-4.27621e-05
-4.80582e-05
-5.38774e-05
-5.99155e-05
-6.60113e-05
-7.20312e-05
-7.7843e-05
-8.33119e-05
-8.83046e-05
-9.26929e-05
-9.63602e-05
-9.92056e-05
-0.000101149
-0.000102137
-0.000102142
-0.000101178
-9.93197e-05
-9.68103e-05
-9.44346e-05
-3.3746e-05
-3.71149e-05
-4.17062e-05
-4.67543e-05
-5.19932e-05
-5.72822e-05
-6.25055e-05
-6.7548e-05
-7.22932e-05
-7.66249e-05
-8.04324e-05
-8.36142e-05
-8.6083e-05
-8.77695e-05
-8.86261e-05
-8.86309e-05
-8.77945e-05
-8.61833e-05
-8.40098e-05
-8.19595e-05
-2.86174e-05
-3.14638e-05
-3.53521e-05
-3.96298e-05
-4.40696e-05
-4.85521e-05
-5.29788e-05
-5.72524e-05
-6.12739e-05
-6.4945e-05
-6.81718e-05
-7.08684e-05
-7.29606e-05
-7.43898e-05
-7.51158e-05
-7.51199e-05
-7.44112e-05
-7.30466e-05
-7.12073e-05
-6.94775e-05
-2.3481e-05
-2.58095e-05
-2.89963e-05
-3.25039e-05
-3.6145e-05
-3.98211e-05
-4.34515e-05
-4.69562e-05
-5.02542e-05
-5.32648e-05
-5.59111e-05
-5.81225e-05
-5.98383e-05
-6.10103e-05
-6.16057e-05
-6.16091e-05
-6.10281e-05
-5.99095e-05
-5.84029e-05
-5.69897e-05
-1.83384e-05
-2.01525e-05
-2.26391e-05
-2.53771e-05
-2.82195e-05
-3.10893e-05
-3.39234e-05
-3.66595e-05
-3.92341e-05
-4.15844e-05
-4.36502e-05
-4.53765e-05
-4.6716e-05
-4.7631e-05
-4.80958e-05
-4.80984e-05
-4.76449e-05
-4.6772e-05
-4.5597e-05
-4.44971e-05
-1.31907e-05
-1.44933e-05
-1.62807e-05
-1.82494e-05
-2.02933e-05
-2.2357e-05
-2.43949e-05
-2.63624e-05
-2.82137e-05
-2.99038e-05
-3.13893e-05
-3.26306e-05
-3.35938e-05
-3.42517e-05
-3.45859e-05
-3.45879e-05
-3.42618e-05
-3.36342e-05
-3.279e-05
-3.20008e-05
-8.03957e-06
-8.83257e-06
-9.92154e-06
-1.11212e-05
-1.23667e-05
-1.36242e-05
-1.48661e-05
-1.6065e-05
-1.71931e-05
-1.8223e-05
-1.91282e-05
-1.98846e-05
-2.04716e-05
-2.08725e-05
-2.10761e-05
-2.10773e-05
-2.08787e-05
-2.04963e-05
-1.99821e-05
-1.95019e-05
-0.000107453
-0.000119545
-0.000134786
-0.000151259
-0.00016829
-0.000185472
-0.000202441
-0.000218825
-0.000234247
-0.000248328
-0.000260706
-0.000271052
-0.00027908
-0.000284564
-0.000287349
-0.000287359
-0.000284619
-0.000279299
-0.000271924
-0.000264222
-0.000102407
-0.000113784
-0.000128248
-0.000143908
-0.000160103
-0.000176443
-0.00019258
-0.000208161
-0.000222826
-0.000236216
-0.000247987
-0.000257825
-0.000265459
-0.000270674
-0.000273322
-0.000273332
-0.000270728
-0.000265677
-0.000258692
-0.000251478
-9.73336e-05
-0.000108016
-0.000121709
-0.000136556
-0.000151917
-0.000167416
-0.000182722
-0.000197501
-0.00021141
-0.00022411
-0.000235275
-0.000244605
-0.000251845
-0.000256791
-0.000259303
-0.000259313
-0.000256845
-0.000252061
-0.000245462
-0.000238718
-9.22338e-05
-0.000102242
-0.000115166
-0.000129204
-0.000143731
-0.000158389
-0.000172866
-0.000186844
-0.000199999
-0.000212009
-0.000222568
-0.000231392
-0.000238239
-0.000242916
-0.000245291
-0.000245301
-0.000242969
-0.00023845
-0.000232234
-0.000225943
-8.71095e-05
-9.646e-05
-0.000108622
-0.000121851
-0.000135545
-0.000149365
-0.000163012
-0.000176189
-0.000188591
-0.000199913
-0.000209866
-0.000218184
-0.000224639
-0.000229048
-0.000231287
-0.000231297
-0.000229099
-0.000224846
-0.000219007
-0.000213152
-8.19621e-05
-9.06717e-05
-0.000102076
-0.000114497
-0.00012736
-0.000140341
-0.00015316
-0.000165538
-0.000177186
-0.000187821
-0.00019717
-0.000204982
-0.000211045
-0.000215186
-0.000217289
-0.000217299
-0.000215236
-0.000211246
-0.000205781
-0.000200348
-7.67932e-05
-8.4877e-05
-9.55268e-05
-0.000107142
-0.000119175
-0.000131318
-0.00014331
-0.000154888
-0.000165785
-0.000175733
-0.000184478
-0.000191786
-0.000197456
-0.00020133
-0.000203297
-0.000203307
-0.000201378
-0.00019765
-0.000192556
-0.000187531
-7.16043e-05
-7.90762e-05
-8.8976e-05
-9.97873e-05
-0.00011099
-0.000122296
-0.000133461
-0.000144241
-0.000154387
-0.000163648
-0.00017179
-0.000178594
-0.000183873
-0.00018748
-0.000189311
-0.00018932
-0.000187526
-0.000184059
-0.000179331
-0.000174703
-6.6397e-05
-7.32696e-05
-8.24232e-05
-9.24316e-05
-0.000102805
-0.000113275
-0.000123614
-0.000133597
-0.000142991
-0.000151567
-0.000159106
-0.000165406
-0.000170295
-0.000173634
-0.00017533
-0.000175339
-0.000173678
-0.000170471
-0.000166106
-0.000161863
-6.11726e-05
-6.74574e-05
-7.58685e-05
-8.50752e-05
-9.46198e-05
-0.000104254
-0.000113768
-0.000122954
-0.000131598
-0.000139489
-0.000146426
-0.000152223
-0.000156721
-0.000159793
-0.000161354
-0.000161362
-0.000159835
-0.000156887
-0.000152882
-0.000149013
-5.59327e-05
-6.16401e-05
-6.93119e-05
-7.77182e-05
-8.6435e-05
-9.52338e-05
-0.000103923
-0.000112312
-0.000120207
-0.000127414
-0.000133749
-0.000139043
-0.000143151
-0.000145957
-0.000147382
-0.00014739
-0.000145995
-0.000143306
-0.000139658
-0.000136153
-5.06786e-05
-5.5818e-05
-6.27537e-05
-7.03606e-05
-7.82501e-05
-8.62142e-05
-9.40793e-05
-0.000101672
-0.000108818
-0.000115341
-0.000121075
-0.000125867
-0.000129584
-0.000132124
-0.000133414
-0.000133421
-0.00013216
-0.000129728
-0.000126433
-0.000123286
-4.54117e-05
-4.99916e-05
-5.6194e-05
-6.30024e-05
-7.00652e-05
-7.71951e-05
-8.42362e-05
-9.10338e-05
-9.74307e-05
-0.00010327
-0.000108403
-0.000112693
-0.000116021
-0.000118295
-0.00011945
-0.000119456
-0.000118327
-0.000116152
-0.000113209
-0.00011041
-4.01334e-05
-4.41611e-05
-4.96328e-05
-5.56437e-05
-6.18803e-05
-6.81763e-05
-7.43939e-05
-8.03965e-05
-8.60451e-05
-9.12017e-05
-9.57342e-05
-9.95219e-05
-0.000102461
-0.000104468
-0.000105488
-0.000105494
-0.000104497
-0.000102578
-9.99844e-05
-9.75279e-05
-3.48451e-05
-3.83271e-05
-4.30703e-05
-4.82845e-05
-5.36953e-05
-5.91578e-05
-6.45522e-05
-6.97601e-05
-7.46608e-05
-7.91347e-05
-8.3067e-05
-8.63532e-05
-8.89029e-05
-9.06447e-05
-9.15294e-05
-9.15343e-05
-9.06702e-05
-8.90058e-05
-8.67596e-05
-8.46397e-05
-2.95481e-05
-3.249e-05
-3.65068e-05
-4.09249e-05
-4.55102e-05
-5.01395e-05
-5.47112e-05
-5.91246e-05
-6.32778e-05
-6.70691e-05
-7.04016e-05
-7.31864e-05
-7.53472e-05
-7.68232e-05
-7.75729e-05
-7.75772e-05
-7.68451e-05
-7.54353e-05
-7.35346e-05
-7.17462e-05
-2.42438e-05
-2.66502e-05
-2.99422e-05
-3.35649e-05
-3.73251e-05
-4.11215e-05
-4.48705e-05
-4.84899e-05
-5.18957e-05
-5.50048e-05
-5.77376e-05
-6.00213e-05
-6.17932e-05
-6.30036e-05
-6.36185e-05
-6.3622e-05
-6.30218e-05
-6.18662e-05
-6.03095e-05
-5.88484e-05
-1.89335e-05
-2.08083e-05
-2.33769e-05
-2.62046e-05
-2.914e-05
-3.21036e-05
-3.50303e-05
-3.78557e-05
-4.05144e-05
-4.29415e-05
-4.50748e-05
-4.68576e-05
-4.82408e-05
-4.91857e-05
-4.96656e-05
-4.96684e-05
-4.91999e-05
-4.82982e-05
-4.70841e-05
-4.5947e-05
-1.36185e-05
-1.49646e-05
-1.68109e-05
-1.88441e-05
-2.09548e-05
-2.30858e-05
-2.51903e-05
-2.7222e-05
-2.91337e-05
-3.0879e-05
-3.2413e-05
-3.36948e-05
-3.46894e-05
-3.53689e-05
-3.5714e-05
-3.5716e-05
-3.53792e-05
-3.4731e-05
-3.38586e-05
-3.30428e-05
-8.30018e-06
-9.11966e-06
-1.02445e-05
-1.14834e-05
-1.27696e-05
-1.40681e-05
-1.53505e-05
-1.65886e-05
-1.77535e-05
-1.8817e-05
-1.97518e-05
-2.05329e-05
-2.1139e-05
-2.1553e-05
-2.17633e-05
-2.17645e-05
-2.15593e-05
-2.11643e-05
-2.0633e-05
-2.01365e-05
-0.000110895
-0.000123381
-0.000139114
-0.000156118
-0.000173696
-0.000191431
-0.000208945
-0.000225856
-0.000241774
-0.000256307
-0.000269084
-0.000279762
-0.000288049
-0.000293709
-0.000296583
-0.000296594
-0.000293765
-0.000288274
-0.000280659
-0.000272705
-0.000105682
-0.000117428
-0.000132359
-0.000148522
-0.000165237
-0.000182101
-0.000198756
-0.000214837
-0.000229973
-0.000243793
-0.000255941
-0.000266095
-0.000273974
-0.000279356
-0.000282089
-0.000282099
-0.000279411
-0.000274197
-0.000266987
-0.000259537
-0.00010044
-0.000111469
-0.000125602
-0.000140926
-0.000156779
-0.000172774
-0.000188571
-0.000203823
-0.000218178
-0.000231285
-0.000242807
-0.000252436
-0.000259909
-0.000265013
-0.000267605
-0.000267615
-0.000265068
-0.00026013
-0.000253318
-0.000246354
-9.51723e-05
-0.000105504
-0.000118844
-0.000133331
-0.000148323
-0.00016345
-0.00017839
-0.000192814
-0.00020639
-0.000218785
-0.000229681
-0.000238787
-0.000245853
-0.00025068
-0.000253131
-0.000253141
-0.000250734
-0.00024607
-0.000239653
-0.000233157
-8.98799e-05
-9.95326e-05
-0.000112085
-0.000125736
-0.000139868
-0.000154129
-0.000168212
-0.00018181
-0.000194607
-0.000206291
-0.000216562
-0.000225145
-0.000231806
-0.000236356
-0.000238666
-0.000238676
-0.000236409
-0.000232018
-0.000225992
-0.000219947
-8.45644e-05
-9.35552e-05
-0.000105324
-0.000118142
-0.000131415
-0.00014481
-0.000158038
-0.00017081
-0.00018283
-0.000193803
-0.00020345
-0.000211512
-0.000217767
-0.000222041
-0.000224211
-0.00022422
-0.000222092
-0.000217974
-0.000212333
-0.000206724
-7.92276e-05
-8.75719e-05
-9.85624e-05
-0.000110548
-0.000122964
-0.000135493
-0.000147867
-0.000159814
-0.000171057
-0.000181322
-0.000190345
-0.000197885
-0.000203736
-0.000207733
-0.000209763
-0.000209773
-0.000207783
-0.000203935
-0.000198677
-0.00019349
-7.38708e-05
-8.15832e-05
-9.17992e-05
-0.000102955
-0.000114513
-0.000126179
-0.000137699
-0.000148821
-0.000159289
-0.000168845
-0.000177245
-0.000184265
-0.000189713
-0.000193434
-0.000195323
-0.000195332
-0.000193481
-0.000189903
-0.000185023
-0.000180245
-6.84957e-05
-7.55892e-05
-8.50348e-05
-9.53614e-05
-0.000106064
-0.000116866
-0.000127534
-0.000137833
-0.000147525
-0.000156374
-0.000164152
-0.000170652
-0.000175695
-0.000179141
-0.000180891
-0.000180899
-0.000179186
-0.000175877
-0.000171372
-0.000166991
-6.31037e-05
-6.95902e-05
-7.82693e-05
-8.77683e-05
-9.76155e-05
-0.000107555
-0.000117371
-0.000126847
-0.000135765
-0.000143907
-0.000151063
-0.000157044
-0.000161685
-0.000164855
-0.000166465
-0.000166473
-0.000164897
-0.000161855
-0.000157722
-0.000153728
-5.76961e-05
-6.35866e-05
-7.15026e-05
-8.01754e-05
-8.91683e-05
-9.82456e-05
-0.00010721
-0.000115865
-0.000124009
-0.000131444
-0.00013798
-0.000143442
-0.000147679
-0.000150574
-0.000152045
-0.000152052
-0.000150614
-0.000147839
-0.000144074
-0.000140456
-5.22746e-05
-5.75787e-05
-6.47349e-05
-7.25827e-05
-8.07218e-05
-8.89378e-05
-9.70515e-05
-0.000104885
-0.000112256
-0.000118986
-0.000124901
-0.000129844
-0.000133679
-0.000136299
-0.00013763
-0.000137637
-0.000136336
-0.000133826
-0.000130427
-0.000127177
-4.68404e-05
-5.15668e-05
-5.79663e-05
-6.49902e-05
-7.22762e-05
-7.96312e-05
-8.68948e-05
-9.39071e-05
-0.000100506
-0.00010653
-0.000111825
-0.00011625
-0.000119684
-0.000122029
-0.00012322
-0.000123227
-0.000122062
-0.000119818
-0.000116781
-0.000113892
-4.13949e-05
-4.55514e-05
-5.11967e-05
-5.73977e-05
-6.38312e-05
-7.03259e-05
-7.67397e-05
-8.29317e-05
-8.87586e-05
-9.40779e-05
-9.87535e-05
-0.000102661
-0.000105692
-0.000107763
-0.000108815
-0.000108821
-0.000107793
-0.000105812
-0.000103136
-0.000100601
-3.59395e-05
-3.95327e-05
-4.44264e-05
-4.98053e-05
-5.53868e-05
-6.10215e-05
-6.65861e-05
-7.19582e-05
-7.70134e-05
-8.16284e-05
-8.56847e-05
-8.90745e-05
-9.17046e-05
-9.35013e-05
-9.44139e-05
-9.44189e-05
-9.35275e-05
-9.18102e-05
-8.94925e-05
-8.73043e-05
-3.04755e-05
-3.35113e-05
-3.76554e-05
-4.2213e-05
-4.69429e-05
-5.17181e-05
-5.64338e-05
-6.09863e-05
-6.52703e-05
-6.91812e-05
-7.26186e-05
-7.54912e-05
-7.77201e-05
-7.92426e-05
-8.0016e-05
-8.00203e-05
-7.92651e-05
-7.78106e-05
-7.58493e-05
-7.40034e-05
-2.50043e-05
-2.74875e-05
-3.08838e-05
-3.46208e-05
-3.84995e-05
-4.24154e-05
-4.62825e-05
-5.00158e-05
-5.35289e-05
-5.6736e-05
-5.95548e-05
-6.19104e-05
-6.37382e-05
-6.49867e-05
-6.56209e-05
-6.56245e-05
-6.50053e-05
-6.38131e-05
-6.22068e-05
-6.06988e-05
-1.95271e-05
-2.14617e-05
-2.41116e-05
-2.70286e-05
-3.00564e-05
-3.31133e-05
-3.61321e-05
-3.90464e-05
-4.17889e-05
-4.42924e-05
-4.64928e-05
-4.83317e-05
-4.97584e-05
-5.07331e-05
-5.12282e-05
-5.1231e-05
-5.07477e-05
-4.98174e-05
-4.85647e-05
-4.7391e-05
-1.40454e-05
-1.54343e-05
-1.73391e-05
-1.94364e-05
-2.16136e-05
-2.38116e-05
-2.59823e-05
-2.80779e-05
-3.00499e-05
-3.185e-05
-3.34323e-05
-3.47545e-05
-3.57804e-05
-3.64812e-05
-3.68372e-05
-3.68392e-05
-3.64918e-05
-3.5823e-05
-3.49229e-05
-3.40809e-05
-8.56027e-06
-9.40588e-06
-1.05663e-05
-1.18443e-05
-1.31709e-05
-1.45103e-05
-1.58331e-05
-1.71101e-05
-1.83117e-05
-1.94086e-05
-2.03728e-05
-2.11785e-05
-2.18036e-05
-2.22307e-05
-2.24476e-05
-2.24488e-05
-2.22371e-05
-2.18297e-05
-2.12814e-05
-2.07691e-05
-0.000114125
-0.000126978
-0.000143171
-0.000160672
-0.000178763
-0.000197015
-0.00021504
-0.000232445
-0.000248827
-0.000263785
-0.000276935
-0.000287925
-0.000296453
-0.000302279
-0.000305237
-0.000305248
-0.000302336
-0.000296684
-0.000288846
-0.000280657
-0.000108756
-0.000120848
-0.000136215
-0.000152849
-0.000170052
-0.000187408
-0.000204548
-0.000221098
-0.000236675
-0.000250898
-0.000263401
-0.00027385
-0.000281959
-0.000287498
-0.000290311
-0.000290322
-0.000287555
-0.000282188
-0.000274766
-0.000267097
-0.000103359
-0.000114712
-0.000129258
-0.000145028
-0.000161343
-0.000177804
-0.000194061
-0.000209758
-0.000224531
-0.000238019
-0.000249877
-0.000259787
-0.000267476
-0.000272729
-0.000275397
-0.000275408
-0.000272786
-0.000267703
-0.000260692
-0.000253523
-9.79357e-05
-0.00010857
-0.0001223
-0.000137208
-0.000152637
-0.000168204
-0.000183578
-0.000198423
-0.000212393
-0.000225149
-0.000236362
-0.000245733
-0.000253005
-0.000257972
-0.000260495
-0.000260505
-0.000258027
-0.000253228
-0.000246623
-0.000239936
-9.24871e-05
-0.000102422
-0.000115341
-0.000129389
-0.000143932
-0.000158608
-0.0001731
-0.000187093
-0.000200263
-0.000212286
-0.000222856
-0.000231689
-0.000238543
-0.000243225
-0.000245603
-0.000245613
-0.000243279
-0.000238761
-0.000232558
-0.000226335
-8.70153e-05
-9.62691e-05
-0.000108381
-0.000121572
-0.00013523
-0.000149014
-0.000162627
-0.000175769
-0.000188138
-0.000199431
-0.000209357
-0.000217654
-0.000224091
-0.000228488
-0.000230721
-0.000230731
-0.000228541
-0.000224302
-0.000218497
-0.000212723
-8.15218e-05
-9.01101e-05
-0.000101421
-0.000113755
-0.00012653
-0.000139424
-0.000152157
-0.00016445
-0.00017602
-0.000186582
-0.000195867
-0.000203627
-0.000209647
-0.000213761
-0.000215849
-0.000215859
-0.000213811
-0.000209852
-0.00020444
-0.0001991
-7.60082e-05
-8.39459e-05
-9.44592e-05
-0.000105938
-0.000117832
-0.000129836
-0.00014169
-0.000153136
-0.000163907
-0.00017374
-0.000182384
-0.000189607
-0.000195213
-0.000199042
-0.000200986
-0.000200995
-0.00019909
-0.000195408
-0.000190386
-0.000185468
-7.04761e-05
-7.77767e-05
-8.74969e-05
-9.81231e-05
-0.000109136
-0.000120251
-0.000131228
-0.000141825
-0.000151799
-0.000160904
-0.000168907
-0.000175596
-0.000180785
-0.000184331
-0.000186131
-0.00018614
-0.000184377
-0.000180971
-0.000176335
-0.000171826
-6.49269e-05
-7.16027e-05
-8.05339e-05
-9.03084e-05
-0.000100441
-0.000110668
-0.000120768
-0.000130519
-0.000139695
-0.000148073
-0.000155437
-0.00016159
-0.000166365
-0.000169627
-0.000171284
-0.000171292
-0.000169671
-0.000166541
-0.000162287
-0.000158175
-5.93621e-05
-6.54243e-05
-7.35702e-05
-8.24943e-05
-9.17474e-05
-0.000101088
-0.000110311
-0.000119216
-0.000127597
-0.000135247
-0.000141972
-0.000147592
-0.000151952
-0.000154931
-0.000156444
-0.000156451
-0.000154971
-0.000152115
-0.000148241
-0.000144517
-5.37831e-05
-5.92418e-05
-6.66057e-05
-7.46807e-05
-8.30553e-05
-9.1509e-05
-9.98573e-05
-0.000107917
-0.000115502
-0.000122426
-0.000128512
-0.000133598
-0.000137545
-0.00014024
-0.00014161
-0.000141617
-0.000140278
-0.000137695
-0.000134197
-0.000130852
-4.81913e-05
-5.30555e-05
-5.96405e-05
-6.68677e-05
-7.43644e-05
-8.19321e-05
-8.94056e-05
-9.66207e-05
-0.00010341
-0.000109609
-0.000115057
-0.00011961
-0.000123143
-0.000125556
-0.000126781
-0.000126788
-0.00012559
-0.00012328
-0.000120155