/*--------------------------------*- C++ -*----------------------------------*\
| =========                 |                                                 |
| \\      /  F ield         | OpenFOAM: The Open Source CFD Toolbox           |
|  \\    /   O peration     | Version:  v1812                                 |
|   \\  /    A nd           | Web:      www.OpenFOAM.com                      |
|    \\/     M anipulation  |                                                 |
\*---------------------------------------------------------------------------*/
FoamFile
{
    version     2.0;
    format      ascii;
    class       volScalarField;
    location    "0";
    object      lambda;
}
// * * * * * * * * * * * * * * * * * * * * * * * * * * * * * * * * * * * * * //

dimensions      [0 0 0 1 0 0 0];


internalField   nonuniform List<scalar> 
333000
(
-0.00225291
-0.00245645
-0.00286077
-0.00345848
-0.00423371
-0.00515637
-0.00617535
-0.0072145
-0.00817909
-0.00898303
-0.00959564
-0.0100723
-0.0105197
-0.0110434
-0.011714
-0.0125512
-0.0135175
-0.0145189
-0.0154212
-0.0160949
-0.0164889
-0.0166786
-0.0168157
-0.0170515
-0.0174883
-0.0181575
-0.0190134
-0.0199355
-0.0207503
-0.0212892
-0.021481
-0.0214134
-0.0212703
-0.0212366
-0.0214384
-0.0219167
-0.0226217
-0.0234165
-0.0241023
-0.0244849
-0.0244794
-0.0241793
-0.0237866
-0.0235061
-0.0234774
-0.0237482
-0.0242679
-0.0248926
-0.025413
-0.0256233
-0.0254309
-0.0249289
-0.0243233
-0.0238238
-0.0235743
-0.0236255
-0.0239291
-0.0243446
-0.0246662
-0.0246907
-0.0243244
-0.0236533
-0.0228734
-0.022185
-0.0217262
-0.0215472
-0.0216058
-0.0217745
-0.0218653
-0.0216921
-0.0211661
-0.0203601
-0.0194458
-0.0185999
-0.0179446
-0.0175263
-0.0173119
-0.0171966
-0.0170244
-0.0166396
-0.015965
-0.0150535
-0.0140382
-0.0130577
-0.012208
-0.0115268
-0.0109925
-0.0105299
-0.0100272
-0.00937179
-0.00850455
-0.0074568
-0.00631789
-0.00518597
-0.00413933
-0.00322966
-0.00248635
-0.00192377
-0.00154763
-0.00135949
-0.00224408
-0.00244733
-0.00285105
-0.00344785
-0.00422188
-0.00514303
-0.00616029
-0.00719763
-0.00816056
-0.00896328
-0.00957523
-0.0100516
-0.0104987
-0.011022
-0.0116917
-0.0125276
-0.0134921
-0.0144917
-0.0153922
-0.0160648
-0.0164585
-0.0166485
-0.0167859
-0.0170218
-0.0174581
-0.0181262
-0.0189803
-0.0199005
-0.0207136
-0.0212515
-0.0214433
-0.0213765
-0.0212342
-0.0212012
-0.0214028
-0.0218802
-0.0225837
-0.0233766
-0.0240608
-0.0244426
-0.0244374
-0.0241384
-0.023747
-0.0234674
-0.023439
-0.0237092
-0.0242276
-0.0248506
-0.0253696
-0.0255792
-0.0253875
-0.0248869
-0.0242829
-0.0237847
-0.0235358
-0.0235867
-0.0238893
-0.0243035
-0.0246239
-0.0246481
-0.0242826
-0.0236131
-0.022835
-0.0221482
-0.0216902
-0.0215113
-0.0215693
-0.021737
-0.0218271
-0.0216538
-0.0211288
-0.0203245
-0.0194122
-0.0185679
-0.0179138
-0.0174959
-0.0172815
-0.0171657
-0.0169932
-0.0166087
-0.0159353
-0.0150254
-0.0140122
-0.0130333
-0.012185
-0.0115047
-0.0109708
-0.0105085
-0.0100061
-0.00935142
-0.00848549
-0.00743952
-0.00630258
-0.00517255
-0.00412759
-0.00321932
-0.00247711
-0.00191534
-0.00153973
-0.00135185
-0.00222643
-0.00242909
-0.00283162
-0.00342662
-0.00419823
-0.00511639
-0.0061302
-0.00716392
-0.00812356
-0.00892384
-0.00953446
-0.0100103
-0.0104569
-0.0109792
-0.0116472
-0.0124804
-0.0134415
-0.0144372
-0.0153343
-0.0160047
-0.0163978
-0.0165883
-0.0167265
-0.0169625
-0.0173978
-0.0180636
-0.0189144
-0.0198307
-0.0206404
-0.0211763
-0.0213681
-0.0213028
-0.0211623
-0.0211303
-0.0213316
-0.0218073
-0.0225078
-0.023297
-0.0239778
-0.024358
-0.0243534
-0.0240567
-0.023668
-0.0233902
-0.0233622
-0.0236313
-0.0241471
-0.0247669
-0.0252829
-0.0254913
-0.0253007
-0.024803
-0.0242023
-0.0237066
-0.0234588
-0.0235092
-0.0238099
-0.0242213
-0.0245394
-0.0245629
-0.024199
-0.0235328
-0.0227584
-0.0220745
-0.0216183
-0.0214395
-0.0214964
-0.0216623
-0.0217508
-0.0215773
-0.0210543
-0.0202535
-0.0193451
-0.0185041
-0.0178522
-0.0174353
-0.0172207
-0.017104
-0.0169309
-0.016547
-0.0158758
-0.0149694
-0.0139601
-0.0129848
-0.0121391
-0.0114606
-0.0109276
-0.0104658
-0.00996402
-0.00931073
-0.00844743
-0.00740501
-0.00627199
-0.00514575
-0.00410414
-0.00319865
-0.00245864
-0.00189849
-0.00152394
-0.00133658
-0.00219999
-0.00240176
-0.00280252
-0.00339483
-0.00416282
-0.00507651
-0.00608516
-0.0071135
-0.00806821
-0.00886484
-0.00947345
-0.0099484
-0.0103943
-0.0109152
-0.0115806
-0.0124098
-0.0133657
-0.0143558
-0.0152477
-0.0159148
-0.0163069
-0.0164983
-0.0166375
-0.0168737
-0.0173075
-0.0179699
-0.0188158
-0.0197263
-0.0205307
-0.0210637
-0.0212556
-0.0211925
-0.0210546
-0.0210241
-0.0212251
-0.0216982
-0.0223941
-0.0231778
-0.0238537
-0.0242314
-0.0242278
-0.0239345
-0.0235497
-0.0232747
-0.0232473
-0.0235147
-0.0240266
-0.0246415
-0.0251532
-0.0253598
-0.025171
-0.0246775
-0.0240816
-0.0235897
-0.0233435
-0.0233931
-0.0236909
-0.0240984
-0.024413
-0.0244355
-0.024074
-0.0234126
-0.0226437
-0.0219643
-0.0215106
-0.0213321
-0.0213873
-0.0215504
-0.0216366
-0.021463
-0.0209429
-0.0201473
-0.0192446
-0.0184086
-0.01776
-0.0173445
-0.0171296
-0.0170117
-0.0168377
-0.0164547
-0.0157868
-0.0148857
-0.0138821
-0.012912
-0.0120704
-0.0113945
-0.010863
-0.0104018
-0.00990102
-0.00924988
-0.00839049
-0.00735339
-0.00622621
-0.00510562
-0.00406902
-0.0031677
-0.00243097
-0.00187324
-0.00150028
-0.0013137
-0.00216479
-0.0023654
-0.00276379
-0.00335252
-0.00411572
-0.00502346
-0.0060253
-0.00704649
-0.00799468
-0.00878646
-0.00939241
-0.00986614
-0.0103111
-0.01083
-0.011492
-0.0123159
-0.013265
-0.0142475
-0.0151327
-0.0157953
-0.0161863
-0.0163786
-0.0165192
-0.0167556
-0.0171874
-0.0178453
-0.0186846
-0.0195875
-0.0203851
-0.0209141
-0.0211061
-0.0210458
-0.0209114
-0.020883
-0.0210834
-0.0215531
-0.022243
-0.0230194
-0.0236889
-0.0240634
-0.024061
-0.0237721
-0.0233923
-0.023121
-0.0230945
-0.0233596
-0.0238665
-0.0244749
-0.0249809
-0.0251852
-0.0249986
-0.0245107
-0.0239212
-0.0234342
-0.0231902
-0.0232388
-0.0235328
-0.023935
-0.0242451
-0.0242662
-0.0239078
-0.0232529
-0.0224912
-0.0218177
-0.0213673
-0.0211892
-0.0212422
-0.0214017
-0.0214848
-0.0213111
-0.0207949
-0.0200061
-0.019111
-0.0182816
-0.0176374
-0.0172237
-0.0170085
-0.0168891
-0.0167139
-0.016332
-0.0156686
-0.0147744
-0.0137784
-0.0128153
-0.0119791
-0.0113067
-0.010777
-0.0103169
-0.00981732
-0.00916905
-0.00831487
-0.00728479
-0.00616536
-0.00505226
-0.0040223
-0.00312652
-0.00239415
-0.00183963
-0.00146878
-0.00128325
-0.00212089
-0.00232004
-0.00271549
-0.00329978
-0.00405701
-0.00495739
-0.00595075
-0.0069631
-0.0079032
-0.00868896
-0.00929155
-0.00976375
-0.0102074
-0.010724
-0.0113816
-0.0121989
-0.0131396
-0.0141128
-0.0149896
-0.0156467
-0.0160361
-0.0162296
-0.0163719
-0.0166084
-0.0170377
-0.0176902
-0.0185213
-0.0194147
-0.0202039
-0.0207281
-0.0209201
-0.0208633
-0.0207331
-0.0207071
-0.0209069
-0.0213723
-0.0220548
-0.0228222
-0.0234838
-0.0238543
-0.0238534
-0.0235699
-0.0231964
-0.0229296
-0.0229042
-0.0231664
-0.0236671
-0.0242675
-0.0247665
-0.0249679
-0.024784
-0.024303
-0.0237214
-0.0232405
-0.0229992
-0.0230465
-0.0233359
-0.0237317
-0.0240361
-0.0240556
-0.0237011
-0.0230541
-0.0223013
-0.0216351
-0.0211889
-0.0210113
-0.0210616
-0.0212166
-0.0212961
-0.0211221
-0.0206107
-0.0198303
-0.0189447
-0.0181234
-0.0174847
-0.0170733
-0.0168577
-0.0167364
-0.0165599
-0.0161795
-0.0155215
-0.0146358
-0.0136494
-0.0126948
-0.0118652
-0.0111973
-0.01067
-0.0102111
-0.00971317
-0.00906849
-0.00822078
-0.00719943
-0.0060896
-0.00498579
-0.00396408
-0.00307517
-0.00234824
-0.00179772
-0.00142949
-0.00124526
-0.00206835
-0.00226575
-0.0026577
-0.00323668
-0.00398682
-0.00487842
-0.00586173
-0.00686356
-0.00779405
-0.00857264
-0.00917119
-0.00964148
-0.0100835
-0.0105972
-0.0112496
-0.0120592
-0.0129898
-0.013952
-0.0148188
-0.0154694
-0.0158569
-0.0160517
-0.0161959
-0.0164326
-0.0168589
-0.0175047
-0.0183262
-0.0192085
-0.0199877
-0.0205061
-0.0206981
-0.0206454
-0.02052
-0.020497
-0.020696
-0.0211563
-0.0218301
-0.0225868
-0.023239
-0.0236048
-0.0236057
-0.0233285
-0.0229624
-0.0227008
-0.0226767
-0.0229356
-0.0234289
-0.0240199
-0.0245106
-0.0247086
-0.0245281
-0.0240551
-0.0234827
-0.023009
-0.0227708
-0.0228167
-0.0231007
-0.0234888
-0.0237868
-0.0238044
-0.0234545
-0.0228167
-0.0220744
-0.0214169
-0.0209756
-0.0207986
-0.0208457
-0.0209956
-0.0210708
-0.0208967
-0.0203909
-0.0196205
-0.018746
-0.0179344
-0.0173021
-0.0168936
-0.0166776
-0.0165541
-0.0163761
-0.0159974
-0.015346
-0.0144704
-0.0134952
-0.0125509
-0.0117292
-0.0110665
-0.0105421
-0.0100848
-0.00958889
-0.00894853
-0.00810853
-0.00709754
-0.00599912
-0.00490636
-0.00389446
-0.00301376
-0.0022933
-0.00174756
-0.00138247
-0.00119979
-0.00200724
-0.00220262
-0.00259051
-0.00316335
-0.00390527
-0.00478674
-0.00575843
-0.00674814
-0.00766756
-0.00843785
-0.00903167
-0.00949966
-0.00993975
-0.01045
-0.0110964
-0.0118969
-0.012816
-0.0137654
-0.0146208
-0.015264
-0.0156492
-0.0158454
-0.0159916
-0.0162284
-0.0166512
-0.0172895
-0.0180998
-0.0189693
-0.019737
-0.0202489
-0.0204408
-0.0203926
-0.0202728
-0.020253
-0.020451
-0.0209055
-0.0215692
-0.0223139
-0.0229553
-0.0233157
-0.0233185
-0.0230485
-0.0226908
-0.0224352
-0.0224125
-0.0226675
-0.0231525
-0.0237327
-0.0242141
-0.0244082
-0.0242313
-0.0237676
-0.0232058
-0.0227403
-0.0225057
-0.02255
-0.0228277
-0.0232072
-0.0234978
-0.0235132
-0.0231686
-0.0225415
-0.0218112
-0.0211636
-0.0207279
-0.0205517
-0.0205953
-0.0207393
-0.0208096
-0.0206354
-0.0201361
-0.0193771
-0.0185155
-0.0177149
-0.0170902
-0.0166849
-0.0164685
-0.0163427
-0.016163
-0.0157865
-0.0151426
-0.0142787
-0.0133163
-0.0123838
-0.0115713
-0.0109146
-0.0103936
-0.00993831
-0.00944482
-0.00880954
-0.00797846
-0.00697941
-0.00589416
-0.00481414
-0.0038136
-0.00294239
-0.00222943
-0.00168922
-0.00132777
-0.0011469
-0.00193764
-0.00213074
-0.00251402
-0.0030799
-0.00381253
-0.00468254
-0.00564113
-0.00661718
-0.0075241
-0.008285
-0.00887338
-0.00933864
-0.00977642
-0.0102827
-0.0109222
-0.0117125
-0.0126186
-0.0135538
-0.0143963
-0.015031
-0.0154136
-0.0156112
-0.0157596
-0.0159964
-0.0164152
-0.0170448
-0.0178427
-0.0186978
-0.0194527
-0.0199571
-0.0201489
-0.0201057
-0.019992
-0.0199758
-0.0201726
-0.0206205
-0.021273
-0.0220041
-0.0226335
-0.0229879
-0.0229928
-0.0227307
-0.0223823
-0.0221333
-0.0221122
-0.0223629
-0.0228385
-0.0234067
-0.0238777
-0.0240675
-0.0238948
-0.0234413
-0.0228912
-0.0224348
-0.0222044
-0.0222468
-0.0225176
-0.0228876
-0.0231699
-0.0231831
-0.0228443
-0.022229
-0.0215122
-0.0208757
-0.0204464
-0.020271
-0.0203108
-0.0204484
-0.0205134
-0.0203391
-0.0198472
-0.019101
-0.0182537
-0.0174655
-0.0168492
-0.0164477
-0.016231
-0.0161027
-0.0159213
-0.0155473
-0.0149119
-0.014061
-0.0131132
-0.0121939
-0.0113917
-0.010742
-0.010225
-0.00977202
-0.0092814
-0.00865194
-0.00783096
-0.00684538
-0.00577497
-0.00470935
-0.00372164
-0.00286117
-0.00215673
-0.0016228
-0.00126548
-0.00108665
-0.00185967
-0.00205021
-0.00242835
-0.00298647
-0.00370876
-0.00456604
-0.0055101
-0.006471
-0.00736409
-0.00811452
-0.00869677
-0.00915885
-0.00959389
-0.0100957
-0.0107274
-0.0115064
-0.012398
-0.0133175
-0.0141458
-0.0147711
-0.0151507
-0.0153497
-0.0155003
-0.0157369
-0.0161512
-0.0167714
-0.0175554
-0.0183947
-0.0191356
-0.0196318
-0.0198233
-0.0197854
-0.0196782
-0.0196658
-0.0198613
-0.0203019
-0.020942
-0.0216582
-0.0222745
-0.0226222
-0.0226294
-0.0223759
-0.0220376
-0.0217959
-0.0217764
-0.0220224
-0.0224877
-0.0230429
-0.0235024
-0.0236875
-0.0235193
-0.023077
-0.0225398
-0.0220934
-0.0218674
-0.0219079
-0.0221712
-0.0225307
-0.0228042
-0.0228148
-0.0224825
-0.0218803
-0.0211782
-0.0205539
-0.0201316
-0.0199573
-0.0199928
-0.0201235
-0.0201829
-0.0200087
-0.0195248
-0.0187927
-0.0179612
-0.0171867
-0.0165797
-0.0161825
-0.0159656
-0.0158347
-0.0156516
-0.0152805
-0.0146546
-0.013818
-0.0128863
-0.0119816
-0.0111909
-0.010549
-0.0100366
-0.00958634
-0.00909907
-0.00847619
-0.00766645
-0.00669581
-0.00564185
-0.00459221
-0.00361876
-0.00277026
-0.0020753
-0.00154839
-0.00119568
-0.00101914
-0.00177342
-0.00196114
-0.00233363
-0.00288323
-0.00359416
-0.00443749
-0.00536565
-0.00631001
-0.00718796
-0.00792691
-0.00850231
-0.00896071
-0.00939258
-0.00988926
-0.0105125
-0.011279
-0.0121549
-0.0130572
-0.0138701
-0.0144851
-0.0148612
-0.0150615
-0.0152144
-0.0154506
-0.0158599
-0.0164696
-0.0172387
-0.0180609
-0.0187865
-0.0192737
-0.0194647
-0.0194324
-0.0193321
-0.0193237
-0.0195177
-0.0199503
-0.020577
-0.0212771
-0.0218792
-0.0222198
-0.0222293
-0.021985
-0.0216575
-0.0214235
-0.0214058
-0.0216466
-0.0221008
-0.0226419
-0.0230892
-0.0232693
-0.0231059
-0.0226756
-0.0221522
-0.0217167
-0.0214956
-0.0215339
-0.0217891
-0.0221375
-0.0224015
-0.0224096
-0.0220842
-0.021496
-0.0208099
-0.0201988
-0.0197842
-0.0196111
-0.0196423
-0.0197656
-0.019819
-0.019645
-0.01917
-0.018453
-0.0176386
-0.0168791
-0.0162824
-0.0158899
-0.015673
-0.0155394
-0.0153547
-0.0149868
-0.0143712
-0.0135504
-0.0126361
-0.0117474
-0.0109694
-0.0103361
-0.00982874
-0.00938173
-0.00889833
-0.00828279
-0.0074854
-0.0065311
-0.00549512
-0.00446296
-0.00350515
-0.0026698
-0.00198527
-0.00146609
-0.00111848
-0.00094446
-0.00167901
-0.00186367
-0.00223
-0.00277033
-0.00346894
-0.00429715
-0.00520811
-0.00613461
-0.00699621
-0.00772268
-0.0082905
-0.0087447
-0.00917291
-0.00966389
-0.0102778
-0.0110308
-0.0118897
-0.0127735
-0.0135698
-0.0141737
-0.0145459
-0.0147474
-0.0149024
-0.0151381
-0.0155418
-0.0161403
-0.0168932
-0.017697
-0.0184063
-0.0188839
-0.0190742
-0.0190477
-0.0189546
-0.0189503
-0.0191425
-0.0195666
-0.0201789
-0.0208618
-0.0214488
-0.0217817
-0.0217936
-0.0215589
-0.0212429
-0.021017
-0.0210011
-0.0212365
-0.0216788
-0.022205
-0.0226393
-0.022814
-0.0226557
-0.0222381
-0.0217294
-0.0213054
-0.0210895
-0.0211257
-0.0213724
-0.021709
-0.0219629
-0.0219684
-0.0216505
-0.0210772
-0.0204081
-0.0198111
-0.0194048
-0.0192331
-0.0192598
-0.0193755
-0.0194227
-0.0192491
-0.0187835
-0.0180829
-0.0172868
-0.0165434
-0.0159577
-0.0155704
-0.0153536
-0.0152175
-0.0150312
-0.0146672
-0.0140627
-0.0132587
-0.0123632
-0.0114918
-0.0107274
-0.0101036
-0.00960198
-0.00915869
-0.00867971
-0.00807228
-0.00728831
-0.00635167
-0.00533511
-0.00432188
-0.00338103
-0.00255996
-0.00188679
-0.00137603
-0.00103396
-0.0008627
-0.00157658
-0.00175793
-0.00211762
-0.00264797
-0.00333332
-0.0041453
-0.00503784
-0.00594523
-0.00678933
-0.00750237
-0.00806189
-0.00851133
-0.00893535
-0.00942002
-0.0100238
-0.0107623
-0.011603
-0.0124672
-0.0132458
-0.0138379
-0.0142056
-0.014408
-0.014565
-0.0147999
-0.0151976
-0.015784
-0.0165197
-0.0173041
-0.017996
-0.0184633
-0.0186528
-0.0186321
-0.0185464
-0.0185463
-0.0187364
-0.0191514
-0.0197485
-0.0204133
-0.0209843
-0.0213091
-0.0213233
-0.0210987
-0.0207946
-0.0205772
-0.0205632
-0.0207927
-0.0212226
-0.021733
-0.0221537
-0.0223228
-0.0221699
-0.0217656
-0.0212724
-0.0208605
-0.0206501
-0.020684
-0.0209218
-0.0212461
-0.0214897
-0.0214924
-0.0211824
-0.0206249
-0.0199737
-0.0193918
-0.0189943
-0.0188242
-0.0188463
-0.0189541
-0.0189951
-0.018822
-0.0183665
-0.0176831
-0.0169065
-0.0161801
-0.0156063
-0.0152247
-0.0150084
-0.0148698
-0.0146822
-0.0143223
-0.0137299
-0.0129438
-0.0120682
-0.0112153
-0.0104656
-0.00985201
-0.00935676
-0.00891773
-0.00844377
-0.00784522
-0.0070757
-0.00615796
-0.0051622
-0.00416925
-0.00324662
-0.00244092
-0.00178
-0.00127833
-0.000942262
-0.000773975
-0.00146627
-0.00164408
-0.00199666
-0.00251633
-0.00318754
-0.00398224
-0.0048552
-0.00574232
-0.00656784
-0.00726654
-0.00781704
-0.00826111
-0.0086804
-0.00915813
-0.00975094
-0.010474
-0.0112955
-0.012139
-0.0128989
-0.0134783
-0.0138412
-0.0140442
-0.014203
-0.0144367
-0.0148278
-0.0154014
-0.0161191
-0.0168829
-0.0175567
-0.0180131
-0.0182015
-0.0181866
-0.0181084
-0.0181124
-0.0183004
-0.0187057
-0.0192868
-0.0199326
-0.020487
-0.0208032
-0.0208198
-0.0206054
-0.0203135
-0.020105
-0.0200929
-0.0203162
-0.0207331
-0.0212272
-0.0216338
-0.0217971
-0.0216496
-0.0212592
-0.020782
-0.0203828
-0.0201781
-0.0202098
-0.0204383
-0.0207499
-0.0209828
-0.0209829
-0.0206812
-0.0201401
-0.0195077
-0.0189415
-0.0185534
-0.0183851
-0.0184025
-0.0185024
-0.018537
-0.0183648
-0.01792
-0.0172547
-0.0164985
-0.0157901
-0.0152289
-0.0148535
-0.0146378
-0.014497
-0.0143084
-0.0139532
-0.0133734
-0.0126063
-0.0117518
-0.0109184
-0.0101844
-0.00958185
-0.00909361
-0.00865941
-0.00819109
-0.00760221
-0.00684812
-0.00595046
-0.00497676
-0.00400538
-0.00310216
-0.00231288
-0.00166506
-0.00117313
-0.000843497
-0.000678404
-0.00134823
-0.00152227
-0.00186729
-0.00237564
-0.00303185
-0.00380828
-0.00466059
-0.00552635
-0.00633229
-0.00701578
-0.00755651
-0.00799461
-0.00840856
-0.00887871
-0.00945983
-0.0101666
-0.0109679
-0.0117895
-0.0125299
-0.0130959
-0.0134534
-0.0136567
-0.013817
-0.0140493
-0.0144333
-0.0149933
-0.015692
-0.0164345
-0.0170893
-0.0175344
-0.0177213
-0.0177122
-0.0176415
-0.0176496
-0.017835
-0.0182302
-0.0187946
-0.0194207
-0.0199579
-0.0202652
-0.020284
-0.0200802
-0.0198008
-0.0196012
-0.019591
-0.019808
-0.0202114
-0.0206886
-0.0210806
-0.021238
-0.0210961
-0.0207199
-0.0202593
-0.0198732
-0.0196745
-0.0197039
-0.019923
-0.0202216
-0.0204436
-0.0204411
-0.020148
-0.0196239
-0.019011
-0.0184612
-0.0180829
-0.0179167
-0.0179295
-0.0180214
-0.0180497
-0.0178785
-0.0174449
-0.0167986
-0.0160637
-0.0153741
-0.0148261
-0.0144575
-0.0142428
-0.0141
-0.0139106
-0.0135606
-0.0129943
-0.012247
-0.0114146
-0.0106018
-0.00988439
-0.00929363
-0.00881304
-0.00838429
-0.00792227
-0.00734384
-0.00660613
-0.00572963
-0.0047792
-0.00383058
-0.00294791
-0.00217604
-0.00154215
-0.00106059
-0.000737802
-0.000576116
-0.00122262
-0.00139267
-0.00172971
-0.0022261
-0.00286651
-0.00362374
-0.0044544
-0.0052978
-0.00608323
-0.00675066
-0.0072809
-0.00771237
-0.00812037
-0.00858227
-0.00915096
-0.00984047
-0.0106206
-0.0114196
-0.0121396
-0.0126916
-0.0130432
-0.0132465
-0.0134079
-0.0136383
-0.0140147
-0.0145605
-0.0152395
-0.0159599
-0.0165951
-0.0170283
-0.0172134
-0.01721
-0.0171466
-0.0171587
-0.0173413
-0.0177258
-0.018273
-0.0188788
-0.0193983
-0.0196964
-0.0197174
-0.019524
-0.0192574
-0.0190669
-0.0190585
-0.0192688
-0.0196585
-0.0201183
-0.0204956
-0.0206469
-0.0205107
-0.020149
-0.0197053
-0.0193326
-0.0191401
-0.0191672
-0.0193768
-0.0196622
-0.0198733
-0.0198682
-0.0195841
-0.0190775
-0.0184847
-0.0179518
-0.0175837
-0.0174199
-0.0174281
-0.017512
-0.0175343
-0.0173645
-0.0169426
-0.0163157
-0.0156029
-0.0149328
-0.0143988
-0.0140375
-0.0138241
-0.0136796
-0.0134899
-0.0131455
-0.0125933
-0.0118667
-0.0110573
-0.010266
-0.00956605
-0.00898787
-0.00851562
-0.00809296
-0.00763793
-0.00707074
-0.0063503
-0.00549599
-0.00456992
-0.00364519
-0.00278412
-0.00203061
-0.00141143
-0.000940843
-0.00062532
-0.000467244
-0.00108962
-0.00125547
-0.00158411
-0.00206794
-0.00269181
-0.00342896
-0.00423703
-0.00505715
-0.0058212
-0.0064718
-0.00699081
-0.00741497
-0.00781637
-0.00826936
-0.00882488
-0.00949638
-0.0102546
-0.0110301
-0.011729
-0.0122663
-0.0126115
-0.0128142
-0.0129764
-0.0132045
-0.0135728
-0.0141038
-0.0147624
-0.01546
-0.016075
-0.0164958
-0.0166789
-0.0166808
-0.0166247
-0.0166405
-0.0168201
-0.0171936
-0.0177231
-0.0183081
-0.0188094
-0.0190981
-0.0191211
-0.0189382
-0.0186843
-0.018503
-0.0184963
-0.0186999
-0.0190754
-0.0195177
-0.0198799
-0.020025
-0.0198947
-0.0195477
-0.0191211
-0.0187621
-0.018576
-0.0186009
-0.0188008
-0.019073
-0.0192731
-0.0192657
-0.0189907
-0.0185019
-0.0179296
-0.0174141
-0.0170567
-0.0168954
-0.0168994
-0.0169755
-0.0169919
-0.0168238
-0.0164139
-0.0158071
-0.015117
-0.0144672
-0.0139477
-0.0135941
-0.0133825
-0.0132367
-0.0130471
-0.012709
-0.0121714
-0.0114662
-0.0106807
-0.00991162
-0.00922999
-0.00866513
-0.0082019
-0.00778601
-0.00733868
-0.0067835
-0.0060812
-0.00525002
-0.00434933
-0.00344954
-0.00261107
-0.00187682
-0.00127311
-0.000814073
-0.000506203
-0.000351935
-0.000949386
-0.00111084
-0.0014307
-0.0019014
-0.00250801
-0.00322428
-0.00400891
-0.0048049
-0.00554678
-0.00617979
-0.00668684
-0.00710299
-0.00749711
-0.00794051
-0.00848215
-0.00913489
-0.00987032
-0.0106217
-0.0112989
-0.0118209
-0.0121592
-0.0123608
-0.0125232
-0.0127486
-0.0131083
-0.0136239
-0.0142616
-0.0149358
-0.0155302
-0.0159383
-0.0161189
-0.0161258
-0.0160767
-0.0160961
-0.0162723
-0.0166344
-0.0171457
-0.0177096
-0.0181925
-0.0184715
-0.0184963
-0.0183238
-0.0180826
-0.0179104
-0.0179055
-0.0181021
-0.0184633
-0.0188878
-0.0192349
-0.0193739
-0.0192493
-0.018917
-0.0185078
-0.0181628
-0.0179832
-0.0180058
-0.018196
-0.018455
-0.0186444
-0.0186346
-0.018369
-0.0178984
-0.0173469
-0.0168492
-0.0165028
-0.0163444
-0.0163442
-0.0164128
-0.0164235
-0.0162575
-0.0158601
-0.0152739
-0.014607
-0.013978
-0.0134736
-0.0131281
-0.0129188
-0.0127722
-0.0125832
-0.0122517
-0.0117295
-0.0110462
-0.0102853
-0.00953937
-0.00887677
-0.00832597
-0.00787246
-0.00746405
-0.00702515
-0.00648277
-0.00579941
-0.00499224
-0.00411788
-0.00324398
-0.00242905
-0.00171491
-0.00112738
-0.000680449
-0.000380609
-0.000230339
-0.000802125
-0.000958992
-0.00126969
-0.00172674
-0.00231542
-0.00301004
-0.00377044
-0.00454154
-0.00526051
-0.00587521
-0.0063696
-0.00677702
-0.00716317
-0.00759629
-0.00812336
-0.00875662
-0.00946864
-0.0101952
-0.0108501
-0.0113564
-0.0116871
-0.0118871
-0.0120493
-0.0122715
-0.012622
-0.0131218
-0.0137379
-0.0143884
-0.0149617
-0.0153567
-0.0155344
-0.0155461
-0.0155036
-0.0155263
-0.0156988
-0.0160492
-0.0165421
-0.0170845
-0.0175488
-0.0178179
-0.0178444
-0.017682
-0.0174534
-0.0172903
-0.017287
-0.0174765
-0.0178232
-0.0182299
-0.0185618
-0.0186947
-0.0185759
-0.0182583
-0.0178665
-0.0175355
-0.0173625
-0.017383
-0.0175637
-0.0178096
-0.0179882
-0.0179764
-0.0177203
-0.017268
-0.0167377
-0.0162581
-0.0159229
-0.0157677
-0.0157637
-0.015825
-0.0158305
-0.0156668
-0.0152823
-0.014717
-0.0140737
-0.013466
-0.0129773
-0.0126405
-0.0124338
-0.0122869
-0.012099
-0.0117749
-0.0112684
-0.0106077
-0.00987201
-0.00914985
-0.00850701
-0.00797098
-0.00752789
-0.00712767
-0.00669797
-0.00616916
-0.00550551
-0.00472316
-0.00387597
-0.00302886
-0.00223835
-0.00154511
-0.000974448
-0.000540153
-0.000248705
-0.000102615
-0.000648026
-0.000800125
-0.00110131
-0.00154419
-0.00211432
-0.0027866
-0.00352205
-0.00426756
-0.00496295
-0.00555868
-0.00603967
-0.00643764
-0.00681511
-0.00723726
-0.00774908
-0.00836222
-0.0090502
-0.00975136
-0.0103835
-0.0108735
-0.0111961
-0.011394
-0.0115555
-0.0117738
-0.0121148
-0.0125982
-0.0131924
-0.0138187
-0.0143706
-0.0147523
-0.0149268
-0.0149427
-0.0149064
-0.014932
-0.0151005
-0.0154389
-0.0159131
-0.016434
-0.0168795
-0.0171387
-0.0171665
-0.0170141
-0.0167978
-0.0166436
-0.0166418
-0.0168241
-0.0171563
-0.0175452
-0.0178621
-0.0179888
-0.0178757
-0.0175728
-0.0171984
-0.0168813
-0.016715
-0.0167335
-0.0169048
-0.0171378
-0.017306
-0.0172924
-0.0170459
-0.016612
-0.016103
-0.0156417
-0.0153181
-0.0151663
-0.0151587
-0.0152131
-0.0152138
-0.0150529
-0.0146816
-0.0141374
-0.0135182
-0.0129322
-0.0124595
-0.0121319
-0.0119285
-0.0117817
-0.0115955
-0.0112792
-0.0107891
-0.0101515
-0.00944147
-0.00874373
-0.0081213
-0.00760073
-0.00716878
-0.0067775
-0.00635776
-0.00584328
-0.00520008
-0.00444328
-0.00362405
-0.00280454
-0.00203926
-0.00136768
-0.000814525
-0.000393374
-0.000110664
3.10688e-05
-0.000487294
-0.000634451
-0.000925789
-0.00135403
-0.00190501
-0.00255431
-0.00326416
-0.00398344
-0.00465465
-0.00523075
-0.00569765
-0.00608543
-0.0064535
-0.006864
-0.00735992
-0.00795233
-0.00861572
-0.00929105
-0.00989993
-0.0103733
-0.0106873
-0.0108824
-0.0110424
-0.0112565
-0.0115873
-0.012054
-0.0126259
-0.0132277
-0.0137581
-0.014126
-0.0142969
-0.0143166
-0.0142862
-0.0143143
-0.0144785
-0.0148046
-0.01526
-0.0157591
-0.0161859
-0.016435
-0.016464
-0.0163211
-0.0161169
-0.0159713
-0.0159709
-0.016146
-0.0164637
-0.0168348
-0.0171368
-0.0172575
-0.01715
-0.0168616
-0.0165045
-0.0162014
-0.0160419
-0.0160584
-0.0162204
-0.0164408
-0.0165989
-0.0165837
-0.0163469
-0.0159315
-0.0154438
-0.015001
-0.0146892
-0.0145411
-0.0145304
-0.0145783
-0.0145746
-0.0144169
-0.014059
-0.0135362
-0.0129413
-0.0123774
-0.0119211
-0.0116031
-0.0114035
-0.0112575
-0.0110736
-0.0107657
-0.0102924
-0.0096782
-0.00899444
-0.00832166
-0.00772027
-0.00721581
-0.00679572
-0.00641413
-0.00600513
-0.00550573
-0.00488368
-0.0041531
-0.00336254
-0.00257138
-0.00183208
-0.00118286
-0.000647832
-0.000240308
3.33327e-05
0.000170541
-0.000320137
-0.00046219
-0.000743363
-0.00115651
-0.00168782
-0.00231353
-0.00299718
-0.00368967
-0.00433613
-0.00489202
-0.00534413
-0.00572098
-0.00607891
-0.00647708
-0.00695646
-0.00752758
-0.0081659
-0.00881499
-0.0094003
-0.00985648
-0.0101613
-0.010353
-0.0105111
-0.0107203
-0.0110406
-0.01149
-0.0120393
-0.0126166
-0.0131252
-0.0134791
-0.0136459
-0.0136689
-0.0136438
-0.013674
-0.0138336
-0.0141473
-0.0145837
-0.0150611
-0.0154691
-0.015708
-0.0157379
-0.0156043
-0.0154118
-0.0152746
-0.0152754
-0.0154432
-0.0157465
-0.0161001
-0.0163873
-0.016502
-0.0164001
-0.0161259
-0.0157859
-0.0154968
-0.015344
-0.0153588
-0.0155118
-0.0157198
-0.0158681
-0.0158516
-0.0156246
-0.0152276
-0.0147612
-0.014337
-0.0140372
-0.0138931
-0.0138797
-0.0139216
-0.013914
-0.01376
-0.0134157
-0.0129144
-0.012344
-0.0118024
-0.011363
-0.0110551
-0.0108597
-0.0107151
-0.0105342
-0.0102353
-0.00977909
-0.00918877
-0.00853163
-0.00788429
-0.00730452
-0.00681683
-0.0064093
-0.00603816
-0.00564069
-0.00515711
-0.00455685
-0.00385311
-0.00309186
-0.00232974
-0.00161712
-0.000990929
-0.000474595
-8.11559e-05
0.000183098
0.000315621
-0.000146773
-0.000283567
-0.000554276
-0.000951916
-0.00146303
-0.00206462
-0.00272153
-0.00338672
-0.00400792
-0.00454302
-0.00497968
-0.00534486
-0.00569192
-0.00607707
-0.00653932
-0.00708861
-0.00770144
-0.00832396
-0.00888538
-0.00932402
-0.00961906
-0.00980669
-0.00996218
-0.010166
-0.0104752
-0.0109071
-0.0114336
-0.0119861
-0.0124729
-0.0128126
-0.0129749
-0.0130006
-0.0129803
-0.0130122
-0.0131669
-0.0134679
-0.0138852
-0.0143411
-0.0147304
-0.014959
-0.0149895
-0.0148647
-0.0146836
-0.0145545
-0.0145564
-0.0147168
-0.0150058
-0.0153421
-0.0156148
-0.0157237
-0.0156271
-0.015367
-0.0150438
-0.0147685
-0.0146225
-0.0146356
-0.0147798
-0.0149759
-0.0151149
-0.0150973
-0.0148801
-0.0145014
-0.0140563
-0.0136507
-0.0133631
-0.0132233
-0.0132075
-0.013244
-0.013233
-0.013083
-0.0127526
-0.012273
-0.0117271
-0.0112082
-0.010786
-0.0104886
-0.0102981
-0.0101555
-0.00997815
-0.00968872
-0.00925013
-0.00868396
-0.00805376
-0.0074323
-0.00687467
-0.00640438
-0.00601011
-0.00565019
-0.00526502
-0.00479798
-0.00422014
-0.00354381
-0.00281245
-0.00207999
-0.00139469
-0.000792138
-0.000295047
8.38729e-05
0.00033844
0.000466123
3.25758e-05
-9.88128e-05
-0.000358777
-0.000740513
-0.00123097
-0.00180794
-0.00243762
-0.00307504
-0.00367053
-0.00418431
-0.00460484
-0.00495762
-0.00529309
-0.00566456
-0.00610908
-0.00663607
-0.00722303
-0.0078187
-0.00835598
-0.0087767
-0.00906144
-0.00924435
-0.00939658
-0.00959445
-0.00989217
-0.0103061
-0.0108096
-0.0113373
-0.0118021
-0.0121275
-0.0122849
-0.0123127
-0.0122967
-0.0123298
-0.0124793
-0.0127675
-0.0131657
-0.0136
-0.0139708
-0.0141892
-0.0142199
-0.0141035
-0.0139333
-0.013812
-0.0138148
-0.0139679
-0.0142427
-0.0145619
-0.0148204
-0.0149236
-0.0148323
-0.0145859
-0.0142792
-0.0140176
-0.0138783
-0.0138899
-0.0140258
-0.0142104
-0.0143404
-0.014322
-0.0141146
-0.0137541
-0.0133301
-0.0129432
-0.0126678
-0.0125327
-0.012515
-0.0125465
-0.0125328
-0.0123873
-0.0120709
-0.011613
-0.0110917
-0.0105955
-0.0101908
-0.00990448
-0.00971931
-0.00957941
-0.00940632
-0.00912694
-0.00870629
-0.00816452
-0.00756155
-0.00696634
-0.00643135
-0.00597906
-0.00559874
-0.0052508
-0.00487871
-0.00442891
-0.00387408
-0.00322567
-0.00252472
-0.00182248
-0.00116509
-0.000586759
-0.000109423
0.000254565
0.00049916
0.000621857
0.000217681
9.18354e-05
-0.000157119
-0.000522584
-0.000991946
-0.00154383
-0.00214584
-0.00275509
-0.00332445
-0.0038164
-0.00422018
-0.00455983
-0.00488299
-0.00524011
-0.00566635
-0.00617058
-0.00673135
-0.00729994
-0.00781285
-0.00821533
-0.00848923
-0.00866676
-0.00881506
-0.00900639
-0.00929219
-0.00968799
-0.0101683
-0.0106711
-0.011114
-0.0114249
-0.0115768
-0.0116063
-0.0115939
-0.0116278
-0.0117718
-0.012047
-0.0124262
-0.0128391
-0.0131915
-0.0133996
-0.0134304
-0.0133218
-0.013162
-0.0130482
-0.0130517
-0.0131975
-0.0134583
-0.0137608
-0.0140055
-0.0141031
-0.0140168
-0.0137837
-0.0134933
-0.0132451
-0.0131126
-0.0131229
-0.0132506
-0.0134241
-0.0135457
-0.0135268
-0.0133292
-0.0129867
-0.0125837
-0.0122154
-0.0119524
-0.0118222
-0.0118031
-0.0118302
-0.0118144
-0.0116736
-0.0113714
-0.0109352
-0.0104386
-0.00996534
-0.00957842
-0.00930349
-0.00912428
-0.00898772
-0.00881954
-0.00855075
-0.00814837
-0.00763121
-0.00705569
-0.00648707
-0.00597517
-0.00554145
-0.00517576
-0.00484056
-0.00448231
-0.00405044
-0.00351915
-0.00289913
-0.00222907
-0.00155757
-0.00092864
-0.000375063
8.20353e-05
0.000430703
0.000665053
0.000782626
0.000408308
0.000288136
5.04405e-05
-0.000298409
-0.000746272
-0.00127265
-0.0018466
-0.00242731
-0.00297016
-0.0034398
-0.00382621
-0.00415202
-0.00446216
-0.0048043
-0.00521173
-0.00569279
-0.00622707
-0.00676838
-0.00725676
-0.00764068
-0.00790322
-0.0080747
-0.00821842
-0.00840264
-0.00867609
-0.00905346
-0.00951051
-0.00998841
-0.0104095
-0.0107056
-0.0108518
-0.0108822
-0.0108729
-0.0109071
-0.0110452
-0.0113073
-0.0116675
-0.0120593
-0.0123935
-0.0125914
-0.0126218
-0.0125206
-0.0123707
-0.0122641
-0.0122682
-0.0124066
-0.0126537
-0.0129398
-0.0131709
-0.0132631
-0.0131818
-0.0129617
-0.0126871
-0.0124521
-0.0123263
-0.0123354
-0.0124554
-0.0126184
-0.012732
-0.0127128
-0.0125251
-0.0122003
-0.0118181
-0.0114682
-0.0112178
-0.0110928
-0.0110727
-0.0110961
-0.0110786
-0.0109432
-0.0106553
-0.0102407
-0.00976874
-0.00931844
-0.00894956
-0.00868648
-0.00851378
-0.00838123
-0.00821863
-0.00796095
-0.00757714
-0.00708476
-0.00653688
-0.00599513
-0.00550675
-0.00509214
-0.00474175
-0.00442003
-0.00407637
-0.00366309
-0.00315587
-0.00256466
-0.00192591
-0.00128562