/*--------------------------------*- C++ -*----------------------------------*\
| =========                 |                                                 |
| \\      /  F ield         | OpenFOAM: The Open Source CFD Toolbox           |
|  \\    /   O peration     | Version:  v1812                                 |
|   \\  /    A nd           | Web:      www.OpenFOAM.com                      |
|    \\/     M anipulation  |                                                 |
\*---------------------------------------------------------------------------*/
FoamFile
{
    version     2.0;
    format      ascii;
    class       volScalarField;
    location    "0";
    object      Tad;
}
// * * * * * * * * * * * * * * * * * * * * * * * * * * * * * * * * * * * * * //

dimensions      [0 0 0 1 0 0 0];


internalField   nonuniform List<scalar> 
125000
(
-23.641
-23.6567
-23.684
-23.7218
-23.7692
-23.8255
-23.8903
-23.9632
-24.0436
-24.1314
-24.2262
-24.3277
-24.4357
-24.55
-24.6702
-24.7964
-24.9281
-25.0652
-25.2077
-25.3552
-25.5075
-25.6647
-25.8264
-25.9925
-26.1628
-26.3372
-26.5155
-26.6976
-26.8833
-27.0725
-27.2648
-27.4603
-27.6588
-27.8599
-28.0636
-28.2698
-28.478
-28.6883
-28.9003
-29.1138
-29.3286
-29.5444
-29.7608
-29.9777
-30.1945
-30.4108
-30.6262
-30.84
-31.0513
-31.259
-23.6313
-23.649
-23.6776
-23.7162
-23.7642
-23.8211
-23.8863
-23.9595
-24.0403
-24.1284
-24.2234
-24.3252
-24.4335
-24.5479
-24.6684
-24.7947
-24.9266
-25.064
-25.2066
-25.3543
-25.5068
-25.6641
-25.826
-25.9922
-26.1627
-26.3373
-26.5158
-26.698
-26.8839
-27.0732
-27.2657
-27.4614
-27.66
-27.8614
-28.0653
-28.2716
-28.4801
-28.6905
-28.9028
-29.1165
-29.3316
-29.5477
-29.7645
-29.9817
-30.1989
-30.4158
-30.6318
-30.8464
-31.059
-31.2687
-23.614
-23.6345
-23.665
-23.7052
-23.7544
-23.8123
-23.8784
-23.9523
-24.0337
-24.1224
-24.218
-24.3203
-24.429
-24.5439
-24.6648
-24.7915
-24.9238
-25.0615
-25.2044
-25.3525
-25.5054
-25.663
-25.8252
-25.9917
-26.1626
-26.3374
-26.5163
-26.6988
-26.885
-27.0746
-27.2675
-27.4636
-27.6625
-27.8642
-28.0685
-28.2752
-28.4841
-28.695
-28.9077
-29.122
-29.3376
-29.5543
-29.7717
-29.9896
-30.2077
-30.4256
-30.6428
-30.859
-31.0735
-31.286
-23.5902
-23.6138
-23.6469
-23.6891
-23.74
-23.7992
-23.8665
-23.9415
-24.024
-24.1135
-24.2099
-24.3129
-24.4223
-24.5378
-24.6594
-24.7866
-24.9195
-25.0578
-25.2012
-25.3498
-25.5032
-25.6613
-25.824
-25.991
-26.1623
-26.3377
-26.517
-26.7
-26.8867
-27.0768
-27.2702
-27.4668
-27.6662
-27.8685
-28.0734
-28.2806
-28.4902
-28.7017
-28.9151
-29.1301
-29.3465
-29.564
-29.7825
-30.0015
-30.2208
-30.44
-30.6589
-30.8771
-31.0942
-31.3098
-23.5608
-23.5878
-23.6237
-23.6682
-23.7211
-23.7822
-23.851
-23.9274
-24.011
-24.1017
-24.1991
-24.3031
-24.4134
-24.5298
-24.6522
-24.7802
-24.9138
-25.0528
-25.197
-25.3462
-25.5003
-25.659
-25.8224
-25.9901
-26.162
-26.338
-26.5179
-26.7016
-26.889
-27.0797
-27.2738
-27.471
-27.6712
-27.8742
-28.0798
-28.2878
-28.4982
-28.7106
-28.9249
-29.1409
-29.3583
-29.577
-29.7966
-30.017
-30.2378
-30.4589
-30.6798
-30.9003
-31.1202
-31.3392
-23.5264
-23.5569
-23.5958
-23.643
-23.6982
-23.7613
-23.8319
-23.91
-23.9951
-24.0871
-24.1858
-24.291
-24.4024
-24.5199
-24.6432
-24.7723
-24.9068
-25.0467
-25.1917
-25.3418
-25.4967
-25.6563
-25.8204
-25.9889
-26.1616
-26.3384
-26.5191
-26.7036
-26.8917
-27.0833
-27.2782
-27.4763
-27.6773
-27.8812
-28.0877
-28.2968
-28.5081
-28.7216
-28.937
-29.1542
-29.3729
-29.5929
-29.814
-30.0361
-30.2587
-30.4818
-30.705
-30.9282
-31.1511
-31.3736
-23.4874
-23.5215
-23.5636
-23.6137
-23.6714
-23.7368
-23.8095
-23.8894
-23.9763
-24.0699
-24.1701
-24.2767
-24.3894
-24.5081
-24.6326
-24.7628
-24.8984
-25.0394
-25.1854
-25.3365
-25.4924
-25.6529
-25.818
-25.9875
-26.1611
-26.3389
-26.5205
-26.706
-26.8951
-27.0876
-27.2835
-27.4826
-27.6846
-27.8896
-28.0972
-28.3074
-28.5199
-28.7346
-28.9513
-29.1699
-29.3901
-29.6117
-29.8346
-30.0585
-30.2832
-30.5086
-30.7343
-30.9604
-31.1865
-31.4126
-23.4444
-23.4822
-23.5276
-23.5806
-23.6411
-23.7089
-23.7839
-23.8659
-23.9547
-24.0501
-24.152
-24.2601
-24.3744
-24.4945
-24.6204
-24.7519
-24.8887
-25.0309
-25.1782
-25.3304
-25.4874
-25.6491
-25.8153
-25.9858
-26.1606
-26.3394
-26.5222
-26.7087
-26.8989
-27.0926
-27.2896
-27.4898
-27.6931
-27.8993
-28.1081
-28.3196
-28.5335
-28.7496
-28.9679
-29.188
-29.4099
-29.6333
-29.8581
-30.0841
-30.3111
-30.5389
-30.7674
-30.9964
-31.2258
-31.4556
-23.3977
-23.4391
-23.4879
-23.5441
-23.6074
-23.6779
-23.7554
-23.8396
-23.9305
-24.0279
-24.1316
-24.2415
-24.3574
-24.4791
-24.6066
-24.7395
-24.8778
-25.0213
-25.1699
-25.3235
-25.4818
-25.6447
-25.8122
-25.984
-26.16
-26.34
-26.524
-26.7118
-26.9033
-27.0982
-27.2965
-27.4981
-27.7027
-27.9102
-28.1205
-28.3334
-28.5489
-28.7666
-28.9865
-29.2084
-29.4321
-29.6575
-29.8844
-30.1126
-30.3421
-30.5726
-30.8039
-31.0361
-31.2689
-31.5023
-23.3475
-23.3926
-23.4449
-23.5043
-23.5707
-23.6439
-23.724
-23.8106
-23.9038
-24.0033
-24.1091
-24.2209
-24.3386
-24.4621
-24.5912
-24.7258
-24.8656
-25.0107
-25.1608
-25.3158
-25.4755
-25.6399
-25.8087
-25.9819
-26.1593
-26.3407
-26.5261
-26.7153
-26.9081
-27.1045
-27.3042
-27.5072
-27.7133
-27.9224
-28.1342
-28.3488
-28.5659
-28.7854
-29.0071
-29.2309
-29.4566
-29.6842
-29.9134
-30.144
-30.3761
-30.6093
-30.8437
-31.0791
-31.3154
-31.5525
-23.2941
-23.3431
-23.3989
-23.4616
-23.531
-23.6072
-23.6899
-23.7792
-23.8748
-23.9766
-24.0845
-24.1984
-24.3181
-24.4435
-24.5744
-24.7107
-24.8523
-24.999
-25.1508
-25.3073
-25.4687
-25.6346
-25.8049
-25.9796
-26.1585
-26.3415
-26.5284
-26.7191
-26.9134
-27.1113
-27.3127
-27.5172
-27.725
-27.9357
-28.1493
-28.3656
-28.5845
-28.8059
-29.0296
-29.2555
-29.4834
-29.7132
-29.9448
-30.1781
-30.4128
-30.649
-30.8864
-31.1251
-31.3649
-31.6059
-23.2379
-23.2906
-23.35
-23.416
-23.4887
-23.5678
-23.6534
-23.7453
-23.8435
-23.9477
-24.0579
-24.174
-24.2958
-24.4233
-24.5561
-24.6944
-24.8378
-24.9864
-25.1399
-25.2982
-25.4612
-25.6288
-25.8008
-25.9772
-26.1577
-26.3423
-26.5308
-26.7232
-26.9192
-27.1188
-27.3218
-27.5281
-27.7376
-27.9502
-28.1656
-28.3839
-28.6047
-28.8282
-29.054
-29.2821
-29.5123
-29.7445
-29.9787
-30.2146
-30.4522
-30.6913
-30.932
-31.174
-31.4174
-31.6621
-23.1789
-23.2354
-23.2984
-23.3679
-23.4438
-23.5261
-23.6146
-23.7093
-23.8101
-23.9169
-24.0295
-24.1479
-24.272
-24.4016
-24.5366
-24.6768
-24.8223
-24.9728
-25.1281
-25.2883
-25.4532
-25.6226
-25.7964
-25.9745
-26.1568
-26.3432
-26.5335
-26.7276
-26.9254
-27.1268
-27.3317
-27.5399
-27.7512
-27.9657
-28.1832
-28.4034
-28.6264
-28.852
-29.0801
-29.3105
-29.5431
-29.7779
-30.0147
-30.2534
-30.4939
-30.7362
-30.9801
-31.2256
-31.4726
-31.7211
-23.1174
-23.1777
-23.2444
-23.3174
-23.3966
-23.482
-23.5736
-23.6712
-23.7747
-23.8841
-23.9993
-24.1202
-24.2466
-24.3785
-24.5157
-24.6582
-24.8057
-24.9582
-25.1156
-25.2778
-25.4446
-25.6159
-25.7916
-25.9717
-26.1559
-26.3441
-26.5363
-26.7324
-26.9321
-27.1354
-27.3422
-27.5524
-27.7658
-27.9823
-28.2018
-28.4243
-28.6495
-28.8774
-29.1078
-29.3407
-29.5759
-29.8133
-30.0528
-30.2944
-30.538
-30.7834
-31.0306
-31.2796
-31.5303
-31.7826
-23.0535
-23.1177
-23.1881
-23.2646
-23.3472
-23.4358
-23.5305
-23.6311
-23.7375
-23.8497
-23.9675
-24.0909
-24.2198
-24.3541
-24.4936
-24.6383
-24.7881
-24.9428
-25.1023
-25.2666
-25.4355
-25.6088
-25.7866
-25.9687
-26.1549
-26.3451
-26.5393
-26.7374
-26.9392
-27.1445
-27.3534
-27.5657
-27.7812
-27.9999
-28.2217
-28.4464
-28.6739
-28.9042
-29.1371
-29.3725
-29.6103
-29.8505
-30.0929
-30.3375
-30.5842
-30.8328
-31.0834
-31.3359
-31.5903
-31.8465
-22.9875
-23.0555
-23.1296
-23.2097
-23.2957
-23.3877
-23.4855
-23.5891
-23.6985
-23.8135
-23.9341
-24.0602
-24.1916
-24.3284
-24.4704
-24.6175
-24.7696
-24.9266
-25.0883
-25.2548
-25.4259
-25.6014
-25.7813
-25.9655
-26.1538
-26.3462
-26.5425
-26.7427
-26.9466
-27.1541
-27.3652
-27.5797
-27.7974
-28.0184
-28.2425
-28.4696
-28.6996
-28.9324
-29.1678
-29.4059
-29.6465
-29.8895
-30.1349
-30.3825
-30.6323
-30.8843
-31.1383
-31.3944
-31.6525
-31.9125
-22.9194
-22.9913
-23.0691
-23.1528
-23.2423
-23.3376
-23.4387
-23.5454
-23.6578
-23.7758
-23.8992
-24.028
-24.1622
-24.3015
-24.4461
-24.5956
-24.7502
-24.9095
-25.0736
-25.2424
-25.4158
-25.5936
-25.7757
-25.9621
-26.1527
-26.3473
-26.5459
-26.7483
-26.9544
-27.1642
-27.3776
-27.5944
-27.8145
-28.0379
-28.2644
-28.4939
-28.7265
-28.9618
-29.2
-29.4408
-29.6842
-29.9302
-30.1786
-30.4293
-30.6824
-30.9377
-31.1952
-31.4549
-31.7167
-31.9806
-22.8495
-22.9252
-23.0068
-23.0941
-23.1871
-23.2858
-23.3902
-23.5001
-23.6156
-23.7365
-23.8629
-23.9945
-24.1315
-24.2735
-24.4207
-24.5728
-24.7299
-24.8917
-25.0583
-25.2295
-25.4052
-25.5854
-25.7699
-25.9586
-26.1515
-26.3485
-26.5494
-26.7541
-26.9626
-27.1748
-27.3905
-27.6097
-27.8323
-28.0581
-28.2872
-28.5193
-28.7545
-28.9925
-29.2335
-29.4771
-29.7235
-29.9724
-30.2239
-30.4778
-30.7342
-30.9929
-31.2539
-31.5172
-31.7828
-32.0505
-22.7777
-22.8574
-22.9427
-23.0337
-23.1302
-23.2324
-23.3401
-23.4533
-23.5719
-23.6959
-23.8252
-23.9598
-24.0996
-24.2444
-24.3943
-24.5491
-24.7088
-24.8732
-25.0423
-25.216
-25.3943
-25.5769
-25.7638
-25.955
-26.1503
-26.3497
-26.553
-26.7602
-26.9711
-27.1857
-27.404
-27.6257
-27.8508
-28.0792
-28.3109
-28.5457
-28.7836
-29.0244
-29.2682
-29.5148
-29.7641
-30.0161
-30.2707
-30.5279
-30.7876
-31.0498
-31.3143
-31.5813
-31.8506
-32.1223
-22.7043
-22.7879
-22.877
-22.9716
-23.0718
-23.1774
-23.2885
-23.405
-23.5268
-23.654
-23.7864
-23.9239
-24.0666
-24.2143
-24.367
-24.5245
-24.6869
-24.854
-25.0258
-25.2021
-25.3829
-25.568
-25.7575
-25.9512
-26.1491
-26.3509
-26.5568
-26.7665
-26.98
-27.1971
-27.4179
-27.6422
-27.87
-28.1011
-28.3355
-28.573
-28.8137
-29.0574
-29.3041
-29.5536
-29.806
-30.0612
-30.319
-30.5795
-30.8426
-31.1082
-31.3764
-31.647
-31.9201
-32.1957
-22.6293
-22.7168
-22.8097
-22.908
-23.0118
-23.121
-23.2355
-23.3554
-23.4805
-23.6108
-23.7463
-23.8869
-24.0326
-24.1832
-24.3388
-24.4992
-24.6643
-24.8342
-25.0086
-25.1876
-25.3711
-25.5589
-25.751
-25.9473
-26.1478
-26.3522
-26.5607
-26.773
-26.9891
-27.2089
-27.4324
-27.6594
-27.8898
-28.1237
-28.3608
-28.6012
-28.8448
-29.0914
-29.3411
-29.5937
-29.8492
-30.1075
-30.3686
-30.6325
-30.899
-31.1682
-31.4399
-31.7143
-31.9912
-32.2707
-22.5529
-22.6443
-22.741
-22.8431
-22.9505
-23.0632
-23.1812
-23.3044
-23.4329
-23.5665
-23.7051
-23.8489
-23.9976
-24.1512
-24.3097
-24.473
-24.641
-24.8137
-24.991
-25.1727
-25.3589
-25.5495
-25.7443
-25.9433
-26.1464
-26.3536
-26.5647
-26.7797
-26.9985
-27.2211
-27.4473
-27.677
-27.9103
-28.147
-28.387
-28.6303
-28.8768
-29.1264
-29.3791
-29.6349
-29.8935
-30.1551
-30.4196
-30.6868
-30.9568
-31.2295
-31.5049
-31.783
-32.0637
-32.3471
-22.4751
-22.5704
-22.6709
-22.7768
-22.8878
-23.0042
-23.1257
-23.2523
-23.3841
-23.521
-23.6629
-23.8098
-23.9617
-24.1184
-24.2799
-24.4462
-24.6171
-24.7927
-24.9728
-25.1574
-25.3464
-25.5397
-25.7373
-25.9391
-26.145
-26.355
-26.5689
-26.7867
-27.0083
-27.2336
-27.4626
-27.6952
-27.9313
-28.1709
-28.4138
-28.6601
-28.9096
-29.1623
-29.4182
-29.6771
-29.939
-30.2039
-30.4717
-30.7423
-31.0158
-31.2922
-31.5712
-31.8531
-32.1376
-32.4249
-22.396
-22.4952
-22.5996
-22.7092
-22.824
-22.9439
-23.069
-23.1991
-23.3343
-23.4745
-23.6197
-23.7699
-23.9249
-24.0847
-24.2493
-24.4186
-24.5926
-24.7711
-24.9542
-25.1417
-25.3336
-25.5298
-25.7302
-25.9349
-26.1436
-26.3564
-26.5731
-26.7938
-27.0182
-27.2464
-27.4783
-27.7138
-27.9529
-28.1954
-28.4414
-28.6907
-28.9433
-29.1991
-29.4581
-29.7203
-29.9855
-30.2537
-30.5249
-30.799
-31.0761
-31.356
-31.6388
-31.9244
-32.2128
-32.504
-22.3157
-22.4188
-22.5271
-22.6405
-22.759
-22.8825
-23.0111
-23.1448
-23.2835
-23.4271
-23.5756
-23.729
-23.8873
-24.0503
-24.218
-24.3904
-24.5674
-24.749
-24.9351
-25.1256
-25.3204
-25.5196
-25.7229
-25.9305
-26.1422
-26.3578
-26.5775
-26.8011
-27.0284
-27.2596
-27.4944
-27.7329
-27.975
-28.2206
-28.4696
-28.722
-28.9777
-29.2367
-29.499
-29.7644
-30.0329
-30.3045
-30.5792
-30.8569
-31.1375
-31.421
-31.7075
-31.9969
-32.2892
-32.5843
-22.2343
-22.3413
-22.4535
-22.5706
-22.6928
-22.8201
-22.9523
-23.0895
-23.2317
-23.3787
-23.5306
-23.6873
-23.8489
-24.0151
-24.186
-24.3616
-24.5417
-24.7264
-24.9155
-25.1091
-25.307
-25.5091
-25.7155
-25.926
-26.1407
-26.3593
-26.582
-26.8085
-27.0389
-27.273
-27.5109
-27.7525
-27.9976
-28.2462
-28.4984
-28.754
-29.0129
-29.2751
-29.5407
-29.8094
-30.0813
-30.3563
-30.6345
-30.9157
-31.1999
-31.4872
-31.7774
-32.0705
-32.3667
-32.6657
-22.1518
-22.2628
-22.3788
-22.4998
-22.6257
-22.7566
-22.8925
-23.0333
-23.1789
-23.3295
-23.4848
-23.6449
-23.8097
-23.9793
-24.1534
-24.3322
-24.5155
-24.7034
-24.8956
-25.0922
-25.2932
-25.4984
-25.7079
-25.9215
-26.1391
-26.3609
-26.5865
-26.8161
-27.0496
-27.2868
-27.5278
-27.7724
-28.0206
-28.2725
-28.5278
-28.7866
-29.0487
-29.3143
-29.5831
-29.8552
-30.1305
-30.4091
-30.6907
-30.9755
-31.2634
-31.5543
-31.8482
-32.1452
-32.4452
-32.7482
-22.0683
-22.1832
-22.3031
-22.4279
-22.5576
-22.6923
-22.8318
-22.9762
-23.1254
-23.2794
-23.4382
-23.6017
-23.7699
-23.9428
-24.1203
-24.3023
-24.4888
-24.6799
-24.8753
-25.0751
-25.2792
-25.4876
-25.7001
-25.9168
-26.1376
-26.3624
-26.5912
-26.8239
-27.0604
-27.3008
-27.5449
-27.7927
-28.0441
-28.2992
-28.5577
-28.8197
-29.0852
-29.3541
-29.6263
-29.9018
-30.1806
-30.4626
-30.7478
-31.0362
-31.3277
-31.6224
-31.9201
-32.2209
-32.5248
-32.8317
-21.9838
-22.1027
-22.2265
-22.3551
-22.4887
-22.627
-22.7702
-22.9182
-23.071
-23.2286
-23.3908
-23.5578
-23.7294
-23.9057
-24.0865
-24.2718
-24.4617
-24.656
-24.8546
-25.0576
-25.2649
-25.4765
-25.6922
-25.9121
-26.136
-26.364
-26.5959
-26.8318
-27.0715
-27.3151
-27.5624
-27.8134
-28.068
-28.3263
-28.5882
-28.8535
-29.1223
-29.3946
-29.6702
-29.9492
-30.2314
-30.517
-30.8058
-31.0978
-31.393
-31.6913
-31.9929
-32.2975
-32.6053
-32.9162
-21.8985
-22.0213
-22.149
-22.2815
-22.4188
-22.5609
-22.7078
-22.8595
-23.0159
-23.177
-23.3428
-23.5133
-23.6883
-23.868
-24.0522
-24.2409
-24.4341
-24.6317
-24.8336
-25.0399
-25.2504
-25.4652
-25.6842
-25.9072
-26.1344
-26.3656
-26.6007
-26.8398
-27.0828
-27.3296
-27.5801
-27.8344
-28.0923
-28.3539
-28.6191
-28.8878
-29.16
-29.4357
-29.7147
-29.9972
-30.283
-30.5721
-30.8645
-31.1602
-31.4591
-31.7612
-32.0665
-32.375
-32.6867
-33.0015
-21.8123
-21.9391
-22.0707
-22.2071
-22.3482
-22.4941
-22.6447
-22.8
-22.9601
-23.1248
-23.2941
-23.4681
-23.6467
-23.8298
-24.0174
-24.2095
-24.4061
-24.607
-24.8123
-25.0219
-25.2357
-25.4538
-25.676
-25.9024
-26.1328
-26.3672
-26.6056
-26.848
-27.0942
-27.3443
-27.5981
-27.8557
-28.117
-28.3819
-28.6505
-28.9226
-29.1982
-29.4773
-29.7599
-30.0459
-30.3352
-30.6279
-30.924
-31.2233
-31.5259
-31.8318
-32.1409
-32.4533
-32.7689
-33.0877
-21.7254
-21.8561
-21.9916
-22.1318
-22.2768
-22.4264
-22.5808
-22.7398
-22.9035
-23.0719
-23.2448
-23.4224
-23.6044
-23.7911
-23.9821
-24.1777
-24.3776
-24.582
-24.7906
-25.0036
-25.2208
-25.4422
-25.6677
-25.8974
-26.1311
-26.3689
-26.6106
-26.8563
-27.1058
-27.3592
-27.6164
-27.8774
-28.142
-28.4104
-28.6823
-28.9579
-29.2369
-29.5195
-29.8056
-30.0952
-30.3881
-30.6845
-30.9842
-31.2872
-31.5936
-31.9032
-32.2162
-32.5324
-32.8519
-33.1746
-21.6377
-21.7724
-21.9118
-22.0559
-22.2047
-22.3581
-22.5162
-22.679
-22.8464
-23.0184
-23.1949
-23.3761
-23.5617
-23.7518
-23.9464
-24.1454
-24.3489
-24.5566
-24.7687
-24.985
-25.2056
-25.4304
-25.6593
-25.8923
-26.1294
-26.3706
-26.6157
-26.8647
-27.1176
-27.3744
-27.635
-27.8993
-28.1674
-28.4391
-28.7146
-28.9936
-29.2762
-29.5623
-29.8519
-30.145
-30.4416
-30.7416
-31.045
-31.3518
-31.6619
-31.9753
-32.2921
-32.6122
-32.9356
-33.2623
-21.5493
-21.6879
-21.8313
-21.9793
-22.1319
-22.2892
-22.4511
-22.6176
-22.7886
-22.9643
-23.1445
-23.3292
-23.5185
-23.7122
-23.9103
-24.1128
-24.3197
-24.5309
-24.7465
-24.9663
-25.1903
-25.4185
-25.6508
-25.8872
-26.1277
-26.3723
-26.6208
-26.8732
-27.1295
-27.3897
-27.6537
-27.9215
-28.1931
-28.4683
-28.7472
-29.0297
-29.3158
-29.6055
-29.8988
-30.1955
-30.4957
-30.7994
-31.1064
-31.4169
-31.7308
-32.0481
-32.3687
-32.6927
-33.0201
-33.3507
-21.4602
-21.6028
-21.7501
-21.902
-22.0585
-22.2196
-22.3852
-22.5555
-22.7303
-22.9097
-23.0936
-23.2819
-23.4748
-23.672
-23.8737
-24.0798
-24.2902
-24.505
-24.724
-24.9473
-25.1748
-25.4064
-25.6422
-25.8821
-26.126
-26.374
-26.6259
-26.8818
-27.1416
-27.4052
-27.6727
-27.944
-28.219
-28.4978
-28.7802
-29.0663
-29.3559
-29.6492
-29.9461
-30.2464
-30.5503
-30.8577
-31.1685
-31.4828
-31.8004
-32.1215
-32.446
-32.7739
-33.1052
-33.4398
-21.3705
-21.5171
-21.6683
-21.8241
-21.9844
-22.1494
-22.3189
-22.4929
-22.6715
-22.8545
-23.0421
-23.2341
-23.4306
-23.6315
-23.8368
-24.0465
-24.2605
-24.4787
-24.7013
-24.9281
-25.1591
-25.3942
-25.6335
-25.8769
-26.1243
-26.3757
-26.6311
-26.8905
-27.1538
-27.4209
-27.6919
-27.9667
-28.2453
-28.5275
-28.8135
-29.1032
-29.3965
-29.6934
-29.9939
-30.2979
-30.6055
-30.9165
-31.2311
-31.5491
-31.8706
-32.1956
-32.5239
-32.8557
-33.1909
-33.5295
-21.2802
-21.4308
-21.5859
-21.7456
-21.9098
-22.0786
-22.2519
-22.4298
-22.6121
-22.7989
-22.9902
-23.1859
-23.3861
-23.5906
-23.7995
-24.0128
-24.2304
-24.4522
-24.6783
-24.9087
-25.1432
-25.3819
-25.6247
-25.8716
-26.1225
-26.3775
-26.6364
-26.8993
-27.1661
-27.4368
-27.7113
-27.9897
-28.2718
-28.5576
-28.8472
-29.1405
-29.4374
-29.7379
-30.0421
-30.3498
-30.6611
-30.9759
-31.2942
-31.6161
-31.9414
-32.2702
-32.6024
-32.9381
-33.2772
-33.6198
-21.1894
-21.3439
-21.503
-21.6666
-21.8347
-22.0073
-22.1845
-22.3661
-22.5522
-22.7428
-22.9378
-23.1373
-23.3411
-23.5493
-23.7619
-23.9788
-24.2
-24.4255
-24.6552
-24.8891
-25.1272
-25.3694
-25.6158
-25.8662
-26.1207
-26.3793
-26.6418
-26.9082
-27.1786
-27.4528
-27.7309
-28.0128
-28.2985
-28.588
-28.8812
-29.1781
-29.4787
-29.7829
-30.0907
-30.4022
-30.7172
-31.0358
-31.3579
-31.6835
-32.0127
-32.3453
-32.6814
-33.021
-33.3641
-33.7106
-21.098
-21.2565
-21.4195
-21.587
-21.7591
-21.9356
-22.1166
-22.302
-22.4919
-22.6863
-22.885
-23.0882
-23.2958
-23.5077
-23.7239
-23.9445
-24.1693
-24.3984
-24.6318
-24.8693
-25.111
-25.3569
-25.6068
-25.8609
-26.1189
-26.381
-26.6471
-26.9172
-27.1911
-27.469
-27.7507
-28.0362
-28.3256
-28.6187
-28.9155
-29.2161
-29.5203
-29.8282
-30.1398
-30.455
-30.7737
-31.0961
-31.422
-31.7514
-32.0844
-32.4209
-32.761
-33.1045
-33.4515
-33.802
-21.0061
-21.1686
-21.3355
-21.507
-21.6829
-21.8633
-22.0481
-22.2374
-22.4312
-22.6293
-22.8319
-23.0388
-23.2501
-23.4657
-23.6857
-23.9099
-24.1384
-24.3712
-24.6082
-24.8494
-25.0947
-25.3442
-25.5978
-25.8554
-26.1171
-26.3829
-26.6526
-26.9262
-27.2038
-27.4853
-27.7706
-28.0598
-28.3528
-28.6496
-28.9501
-29.2543
-29.5623
-29.8739
-30.1892
-30.5081
-30.8307
-31.1568
-31.4866
-31.8199
-32.1567
-32.4971
-32.841
-33.1885
-33.5394
-33.8939
-20.9137
-21.0802
-21.2511
-21.4265
-21.6063
-21.7906
-21.9793
-22.1724
-22.37
-22.5719
-22.7783
-22.989
-23.204
-23.4234
-23.6471
-23.8751
-24.1073
-24.3437
-24.5844
-24.8293
-25.0783
-25.3314
-25.5887
-25.85
-26.1153
-26.3847
-26.658
-26.9353
-27.2166
-27.5017
-27.7907
-28.0836
-28.3802
-28.6807
-28.9849
-29.2929
-29.6046
-29.92
-30.239
-30.5617
-30.888
-31.218
-31.5516
-31.8887
-32.2294
-32.5737
-32.9215
-33.2729
-33.6278
-33.9863
-20.8208
-20.9913
-21.1662
-21.3455
-21.5292
-21.7174
-21.91
-22.107
-22.3084
-22.5142
-22.7244
-22.9388
-23.1577
-23.3808
-23.6082
-23.84
-24.0759
-24.3161
-24.5605
-24.809
-25.0617
-25.3185
-25.5795
-25.8444
-26.1135
-26.3865
-26.6636
-26.9445
-27.2295
-27.5183
-27.811
-28.1075
-28.4079
-28.7121
-29.02
-29.3317
-29.6472
-29.9663
-30.2892
-30.6156
-30.9458
-31.2796
-31.617
-31.958
-32.3026
-32.6508
-33.0025
-33.3578
-33.7167
-34.0792
-20.7275
-20.902
-21.0808
-21.2641
-21.4518
-21.6438
-21.8403
-22.0412
-22.2465
-22.4561
-22.6701
-22.8884
-23.111
-23.3379
-23.5691
-23.8046
-24.0443
-24.2882
-24.5363
-24.7886
-25.045
-25.3056
-25.5702
-25.8389
-26.1116
-26.3884
-26.6691
-26.9538
-27.2424
-27.535
-27.8314
-28.1317
-28.4358
-28.7437
-29.0554
-29.3709
-29.6901
-30.013
-30.3396
-30.6699
-31.0039
-31.3415
-31.6828
-32.0277
-32.3762
-32.7282
-33.0839
-33.4432
-33.806
-34.1725
-20.6338
-20.8122
-20.995
-21.1823
-21.3739
-21.5699
-21.7703
-21.975
-22.1842
-22.3976
-22.6154
-22.8376
-23.064
-23.2947
-23.5297
-23.769
-24.0125
-24.2602
-24.512
-24.768
-25.0282
-25.2925
-25.5609
-25.8333
-26.1098
-26.3902
-26.6747
-26.9631
-27.2555
-27.5518
-27.852
-28.156
-28.4638
-28.7755
-29.091
-29.4103
-29.7332
-30.06
-30.3904
-30.7246
-31.0624
-31.4038
-31.749
-32.0977
-32.4501
-32.8061
-33.1657
-33.529
-33.8958
-34.2662
-20.5397
-20.7221
-20.9089
-21.1
-21.2956
-21.4955
-21.6998
-21.9085
-22.1215
-22.3388
-22.5605
-22.7865
-23.0168
-23.2513
-23.4901
-23.7332
-23.9804
-24.2319
-24.4876
-24.7474
-25.0113
-25.2793
-25.5515
-25.8277
-26.1079
-26.3921
-26.6803
-26.9725
-27.2687
-27.5687
-27.8726
-28.1804
-28.4921
-28.8076
-29.1268
-29.4499
-29.7767
-30.1072
-30.4415
-30.7795
-31.1212
-31.4665
-31.8155
-32.1682
-32.5245
-32.8844
-33.248
-33.6151
-33.9859
-34.3603
-20.4452
-20.6315
-20.8223
-21.0174
-21.2169
-21.4208
-21.629
-21.8416
-22.0585
-22.2797
-22.5053
-22.7351
-22.9692
-23.2076
-23.4502
-23.6971
-23.9482
-24.2035
-24.4629
-24.7265
-24.9943
-25.2661
-25.542
-25.822
-26.106
-26.394
-26.686
-26.982
-27.2819
-27.5857
-27.8935
-28.2051
-28.5205
-28.8398
-29.1629
-29.4897
-29.8204
-30.1548
-30.4929
-30.8347
-31.1803
-31.5295
-31.8824
-32.239
-32.5992
-32.9631
-33.3306
-33.7017
-34.0765
-34.4548
-20.3503
-20.5406
-20.7354
-20.9345
-21.1379
-21.3457
-21.5579
-21.7743
-21.9951
-22.2203
-22.4497
-22.6834
-22.9214
-23.1637
-23.4101
-23.6609
-23.9158
-24.1749
-24.4382
-24.7056
-24.9771
-25.2528
-25.5325
-25.8163
-26.1041
-26.3959
-26.6917
-26.9915
-27.2952
-27.6029
-27.9144
-28.2298
-28.5491
-28.8722
-29.1991
-29.5298
-29.8643
-30.2026
-30.5446
-30.8903
-31.2397
-31.5928
-31.9497
-32.3101
-32.6743
-33.0421
-33.4135
-33.7886
-34.1674
-34.5497
-20.255
-20.4494
-20.6481
-20.8511
-21.0585
-21.2703
-21.4864
-21.7068
-21.9315
-22.1605
-22.3939
-22.6315
-22.8733
-23.1195
-23.3698
-23.6244
-23.8832
-24.1461
-24.4132
-24.6845
-24.9599
-25.2394
-25.5229
-25.8105
-26.1022
-26.3978
-26.6975
-27.0011
-27.3086
-27.6201
-27.9355
-28.2547
-28.5779
-28.9048
-29.2356
-29.5702
-29.9085
-30.2507
-30.5965
-30.9461
-31.2995
-31.6565
-32.0172
-32.3816
-32.7497
-33.1215
-33.4969
-33.8759
-34.2586
-34.645
-20.1594
-20.3577
-20.5604
-20.7674
-20.9788
-21.1945
-21.4146
-21.6389
-21.8676
-22.1005
-22.3377
-22.5793
-22.825
-23.075
-23.3293
-23.5877
-23.8504
-24.1172
-24.3882
-24.6633
-24.9425
-25.2259
-25.5133
-25.8048
-26.1002
-26.3998
-26.7032
-27.0107
-27.3221
-27.6374
-27.9567
-28.2798
-28.6068
-28.9376
-29.2723
-29.6107
-29.953
-30.299
-30.6487
-31.0023
-31.3595
-31.7204
-32.0851
-32.4534
-32.8255
-33.2012
-33.5805
-33.9636
-34.3503
-34.7406
-20.0634
-20.2658
-20.4724
-20.6834
-20.8988
-21.1184
-21.3424
-21.5707
-21.8033
-22.0402
-22.2813
-22.5268
-22.7765
-23.0304
-23.2885
-23.5509
-23.8174
-24.0881
-24.363
-24.642
-24.9251
-25.2123
-25.5036
-25.7989
-26.0983
-26.4017
-26.7091
-27.0204
-27.3357
-27.6549
-27.978
-28.305
-28.6359
-28.9706
-29.3091
-29.6515
-29.9976
-30.3475
-30.7012
-31.0587
-31.4198
-31.7847
-32.1533
-32.5256
-32.9016
-33.2812
-33.6646
-34.0516
-34.4422
-34.8366
-23.637
-23.6527
-23.68
-23.7178
-23.7652
-23.8215
-23.8863
-23.9592
-24.0396
-24.1274
-24.2222
-24.3237
-24.4317
-24.546
-24.6662
-24.7924
-24.9241
-25.0612
-25.2037
-25.3512
-25.5035
-25.6607
-25.8224
-25.9885
-26.1588
-26.3332
-26.5115
-26.6936
-26.8793
-27.0685
-27.2608
-27.4563
-27.6548
-27.8559
-28.0596
-28.2658
-28.474
-28.6843
-28.8963
-29.1098
-29.3246
-29.5404
-29.7568
-29.9737
-30.1905
-30.4068
-30.6222
-30.836
-31.0473
-31.255
-23.6273
-23.645
-23.6736
-23.7122
-23.7602
-23.8171
-23.8823
-23.9555
-24.0363
-24.1244
-24.2194
-24.3212
-24.4295
-24.5439
-24.6644
-24.7907
-24.9226
-25.06
-25.2026
-25.3503
-25.5028
-25.6601
-25.822
-25.9882
-26.1587
-26.3333
-26.5118
-26.694
-26.8799
-27.0692
-27.2617
-27.4574
-27.656
-27.8574
-28.0613
-28.2676
-28.4761
-28.6865
-28.8988
-29.1125
-29.3276
-29.5437
-29.7605
-29.9777
-30.1949
-30.4118
-30.6278
-30.8424
-31.055
-31.2647
-23.61
-23.6305
-23.661
-23.7012
-23.7504
-23.8083
-23.8744
-23.9483
-24.0297
-24.1184
-24.214
-24.3163
-24.425
-24.5399
-24.6608
-24.7875
-24.9198
-25.0575
-25.2004
-25.3485
-25.5014
-25.659
-25.8212
-25.9877
-26.1586
-26.3334
-26.5123
-26.6948
-26.881
-27.0706
-27.2635
-27.4596
-27.6585
-27.8602
-28.0645
-28.2712
-28.4801
-28.691
-28.9037
-29.118
-29.3336
-29.5503
-29.7677
-29.9856
-30.2037
-30.4216
-30.6388
-30.855
-31.0695
-31.282
-23.5862
-23.6098
-23.6429
-23.6851
-23.736
-23.7952
-23.8625
-23.9375
-24.02
-24.1095
-24.2059
-24.3089
-24.4183
-24.5338
-24.6554
-24.7826
-24.9155
-25.0538
-25.1972
-25.3458
-25.4992
-25.6573
-25.82
-25.987
-26.1583
-26.3337
-26.513
-26.696
-26.8827
-27.0728
-27.2662
-27.4628
-27.6622
-27.8645
-28.0694
-28.2766
-28.4862
-28.6977
-28.9111
-29.1261
-29.3425
-29.56
-29.7785
-29.9975
-30.2168
-30.436
-30.6549
-30.8731
-31.0902
-31.3058
-23.5568
-23.5838
-23.6197
-23.6642
-23.7171
-23.7782
-23.847
-23.9234
-24.007
-24.0977
-24.1951
-24.2991
-24.4094
-24.5258
-24.6482
-24.7762
-24.9098
-25.0488
-25.193
-25.3422
-25.4963
-25.655
-25.8184
-25.9861
-26.158
-26.334
-26.5139
-26.6976
-26.885
-27.0757
-27.2698
-27.467
-27.6672
-27.8702
-28.0758
-28.2838
-28.4942
-28.7066
-28.9209
-29.1369
-29.3543
-29.573
-29.7926
-30.013
-30.2338
-30.4549
-30.6758
-30.8963
-31.1162
-31.3352
-23.5224
-23.5529
-23.5918
-23.639
-23.6942
-23.7573
-23.8279
-23.906
-23.9911
-24.0831
-24.1818
-24.287
-24.3984
-24.5159
-24.6392
-24.7683
-24.9028
-25.0427
-25.1877
-25.3378
-25.4927
-25.6523
-25.8164
-25.9849
-26.1576
-26.3344
-26.5151
-26.6996
-26.8877
-27.0793
-27.2742
-27.4723
-27.6733
-27.8772
-28.0837
-28.2928
-28.5041
-28.7176
-28.933
-29.1502
-29.3689
-29.5889
-29.81
-30.0321
-30.2547
-30.4778
-30.701
-30.9242
-31.1471
-31.3696
-23.4834
-23.5175
-23.5596
-23.6097
-23.6674
-23.7328
-23.8055
-23.8854
-23.9723
-24.0659
-24.1661
-24.2727
-24.3854
-24.5041
-24.6286
-24.7588
-24.8944
-25.0354
-25.1814
-25.3325
-25.4884
-25.6489
-25.814
-25.9835
-26.1571
-26.3349
-26.5165
-26.702
-26.8911
-27.0836
-27.2795
-27.4786
-27.6806
-27.8856
-28.0932
-28.3034
-28.5159
-28.7306
-28.9473
-29.1659
-29.3861
-29.6077
-29.8306
-30.0545
-30.2792
-30.5046
-30.7303
-30.9564
-31.1825
-31.4086
-23.4404
-23.4782
-23.5236
-23.5766
-23.6371
-23.7049
-23.7799
-23.8619
-23.9507
-24.0461
-24.148
-24.2561
-24.3704
-24.4905
-24.6164
-24.7479
-24.8847
-25.0269
-25.1742
-25.3264
-25.4834
-25.6451
-25.8113
-25.9818
-26.1566
-26.3354
-26.5182
-26.7047
-26.8949
-27.0886
-27.2856
-27.4858
-27.6891
-27.8953
-28.1041
-28.3156
-28.5295
-28.7456
-28.9639
-29.184
-29.4059
-29.6293
-29.8541
-30.0801
-30.3071
-30.5349
-30.7634
-30.9924
-31.2218
-31.4516
-23.3937
-23.4351
-23.4839
-23.5401
-23.6034
-23.6739
-23.7514
-23.8356
-23.9265
-24.0239
-24.1276
-24.2375
-24.3534
-24.4751
-24.6026
-24.7355
-24.8738
-25.0173
-25.1659
-25.3195
-25.4778
-25.6407
-25.8082
-25.98
-26.156
-26.336
-26.52
-26.7078
-26.8993
-27.0942
-27.2925
-27.4941
-27.6987
-27.9062
-28.1165
-28.3294
-28.5449
-28.7626
-28.9825
-29.2044
-29.4281
-29.6535
-29.8804
-30.1086
-30.3381
-30.5686
-30.7999
-31.0321
-31.2649
-31.4983
-23.3435
-23.3886
-23.4409
-23.5003
-23.5667
-23.6399
-23.72
-23.8066
-23.8998
-23.9993
-24.1051
-24.2169
-24.3346
-24.4581
-24.5872
-24.7218
-24.8616
-25.0067
-25.1568
-25.3118
-25.4715
-25.6359
-25.8047
-25.9779
-26.1553
-26.3367
-26.5221
-26.7113
-26.9041
-27.1005
-27.3002
-27.5032
-27.7093
-27.9184
-28.1302
-28.3448
-28.5619
-28.7814
-29.0031
-29.2269
-29.4526
-29.6802
-29.9094
-30.14
-30.3721
-30.6053
-30.8397
-31.0751
-31.3114
-31.5485
-23.2901
-23.3391
-23.3949
-23.4576
-23.527
-23.6032
-23.6859
-23.7752
-23.8708
-23.9726
-24.0805
-24.1944
-24.3141
-24.4395
-24.5704
-24.7067
-24.8483
-24.995
-25.1468
-25.3033
-25.4647
-25.6306
-25.8009
-25.9756
-26.1545
-26.3375
-26.5244
-26.7151
-26.9094
-27.1073
-27.3087
-27.5132
-27.721
-27.9317
-28.1453
-28.3616
-28.5805
-28.8019
-29.0256
-29.2515
-29.4794
-29.7092
-29.9408
-30.1741
-30.4088
-30.645
-30.8824
-31.1211
-31.3609
-31.6019
-23.2339
-23.2866
-23.346
-23.412
-23.4847
-23.5638
-23.6494
-23.7413
-23.8395
-23.9437
-24.0539
-24.17
-24.2918
-24.4193
-24.5521
-24.6904
-24.8338
-24.9824
-25.1359
-25.2942
-25.4572
-25.6248
-25.7968
-25.9732
-26.1537
-26.3383
-26.5268
-26.7192
-26.9152
-27.1148
-27.3178
-27.5241
-27.7336
-27.9462
-28.1616
-28.3799
-28.6007
-28.8242
-29.05
-29.2781
-29.5083
-29.7405
-29.9747
-30.2106
-30.4482
-30.6873
-30.928
-31.17
-31.4134
-31.6581
-23.1749
-23.2314
-23.2944
-23.3639
-23.4398
-23.5221
-23.6106
-23.7053
-23.8061
-23.9129
-24.0255
-24.1439
-24.268
-24.3976
-24.5326
-24.6728
-24.8183
-24.9688
-25.1241
-25.2843
-25.4492
-25.6186
-25.7924
-25.9705
-26.1528
-26.3392
-26.5295
-26.7236
-26.9214
-27.1228
-27.3277
-27.5359
-27.7472
-27.9617
-28.1792
-28.3994
-28.6224
-28.848
-29.0761
-29.3065
-29.5391
-29.7739
-30.0107
-30.2494
-30.4899
-30.7322
-30.9761
-31.2216
-31.4686
-31.7171
-23.1134
-23.1737
-23.2404
-23.3134
-23.3926
-23.478
-23.5696
-23.6672
-23.7707
-23.8801
-23.9953
-24.1162
-24.2426
-24.3745
-24.5117
-24.6542
-24.8017
-24.9542
-25.1116
-25.2738
-25.4406
-25.6119
-25.7876
-25.9677
-26.1519
-26.3401
-26.5323
-26.7284
-26.9281
-27.1314
-27.3382
-27.5484
-27.7618
-27.9783
-28.1978
-28.4203
-28.6455
-28.8734
-29.1038
-29.3367
-29.5719
-29.8093
-30.0488
-30.2904
-30.534
-30.7794
-31.0266
-31.2756
-31.5263
-31.7786
-23.0495
-23.1137
-23.1841
-23.2606
-23.3432
-23.4318
-23.5265
-23.6271
-23.7335
-23.8457
-23.9635
-24.0869
-24.2158
-24.3501
-24.4896
-24.6343
-24.7841
-24.9388
-25.0983
-25.2626
-25.4315
-25.6048
-25.7826
-25.9647
-26.1509
-26.3411
-26.5353
-26.7334
-26.9352
-27.1405
-27.3494
-27.5617
-27.7772
-27.9959
-28.2177
-28.4424
-28.6699
-28.9002
-29.1331
-29.3685
-29.6063
-29.8465
-30.0889
-30.3335
-30.5802
-30.8288
-31.0794
-31.3319
-31.5863
-31.8425
-22.9835
-23.0515
-23.1256
-23.2057
-23.2917
-23.3837
-23.4815
-23.5851
-23.6945
-23.8095
-23.9301
-24.0562
-24.1876
-24.3244
-24.4664
-24.6135
-24.7656
-24.9226
-25.0843
-25.2508
-25.4219
-25.5974
-25.7773
-25.9615
-26.1498
-26.3422