/*--------------------------------*- C++ -*----------------------------------*\
| =========                 |                                                 |
| \\      /  F ield         | OpenFOAM: The Open Source CFD Toolbox           |
|  \\    /   O peration     | Version:  v1812                                 |
|   \\  /    A nd           | Web:      www.OpenFOAM.com                      |
|    \\/     M anipulation  |                                                 |
\*---------------------------------------------------------------------------*/
FoamFile
{
    version     2.0;
    format      ascii;
    class       volScalarField;
    location    "0.2";
    object      T;
}
// * * * * * * * * * * * * * * * * * * * * * * * * * * * * * * * * * * * * * //

dimensions      [0 0 0 1 0 0 0];


internalField   nonuniform List<scalar> 
8000
(
718.994
703.335
686.234
670.496
656.814
645.366
636.195
629.315
624.728
622.434
622.434
624.728
629.315
636.195
645.366
656.814
670.496
686.234
703.335
718.994
698.857
684.151
667.924
652.954
639.932
629.033
620.303
613.753
609.385
607.201
607.201
609.385
613.753
620.303
629.033
639.932
652.954
667.924
684.151
698.857
678.725
664.941
649.58
635.376
623.013
612.664
604.374
598.154
594.006
591.933
591.933
594.006
598.154
604.374
612.664
623.013
635.376
649.58
664.941
678.725
658.599
645.706
631.204
617.765
606.061
596.262
588.412
582.521
578.594
576.63
576.63
578.594
582.521
588.412
596.262
606.061
617.765
631.204
645.706
658.599
638.479
626.449
612.799
600.124
589.078
579.828
572.418
566.857
563.15
561.296
561.296
563.15
566.857
572.418
579.828
589.078
600.124
612.799
626.449
638.479
618.365
607.171
594.367
582.454
572.065
563.365
556.395
551.164
547.677
545.933
545.933
547.677
551.164
556.395
563.365
572.065
582.454
594.367
607.171
618.365
598.256
587.875
575.911
564.757
555.026
546.875
540.345
535.444
532.177
530.543
530.543
532.177
535.444
540.345
546.875
555.026
564.757
575.911
587.875
598.256
578.152
568.562
557.432
547.036
537.962
530.361
524.27
519.699
516.652
515.128
515.128
516.652
519.699
524.27
530.361
537.962
547.036
557.432
568.562
578.152
558.052
549.233
538.931
529.293
520.875
513.823
508.172
503.931
501.104
499.69
499.69
501.104
503.931
508.172
513.823
520.875
529.293
538.931
549.233
558.052
537.958
529.891
520.412
511.529
503.768
497.264
492.053
488.143
485.535
484.231
484.231
485.535
488.143
492.053
497.264
503.768
511.529
520.412
529.891
537.958
517.868
510.537
501.875
493.746
486.641
480.687
475.915
472.334
469.947
468.753
468.753
469.947
472.334
475.915
480.687
486.641
493.746
501.875
510.537
517.868
497.781
491.171
483.322
475.946
469.497
464.092
459.76
456.509
454.342
453.258
453.258
454.342
456.509
459.76
464.092
469.497
475.946
483.322
491.171
497.781
477.698
471.796
464.756
458.132
452.338
447.481
443.589
440.668
438.721
437.747
437.747
438.721
440.668
443.589
447.481
452.338
458.132
464.756
471.796
477.698
457.619
452.411
446.176
440.303
435.164
430.857
427.404
424.813
423.086
422.222
422.222
423.086
424.813
427.404
430.857
435.164
440.303
446.176
452.411
457.619
437.542
433.02
427.586
422.463
417.979
414.22
411.207
408.946
407.438
406.685
406.685
407.438
408.946
411.207
414.22
417.979
422.463
427.586
433.02
437.542
417.469
413.622
408.986
404.612
400.783
397.572
394.999
393.068
391.78
391.137
391.137
391.78
393.068
394.999
397.572
400.783
404.612
408.986
413.622
417.469
397.397
394.218
390.379
386.753
383.578
380.916
378.782
377.181
376.114
375.58
375.58
376.114
377.181
378.782
380.916
383.578
386.753
390.379
394.218
397.397
377.327
374.81
371.764
368.886
366.366
364.252
362.558
361.287
360.439
360.015
360.015
360.439
361.287
362.558
364.252
366.366
368.886
371.764
374.81
377.327
357.258
355.399
353.144
351.014
349.147
347.582
346.328
345.387
344.759
344.445
344.445
344.759
345.387
346.328
347.582
349.147
351.014
353.144
355.399
357.258
337.191
335.984
334.521
333.137
331.925
330.908
330.094
329.482
329.074
328.871
328.871
329.074
329.482
330.094
330.908
331.925
333.137
334.521
335.984
337.191
723.763
708.103
691.003
675.264
661.583
650.134
640.964
634.084
629.496
627.203
627.203
629.496
634.084
640.964
650.134
661.583
675.264
691.003
708.103
723.763
703.287
688.582
672.354
657.384
644.362
633.464
624.733
618.183
613.816
611.632
611.632
613.816
618.183
624.733
633.464
644.362
657.384
672.354
688.582
703.287
682.837
669.053
653.692
639.488
627.125
616.777
608.486
602.266
598.119
596.045
596.045
598.119
602.266
608.486
616.777
627.125
639.488
653.692
669.053
682.837
662.411
649.518
635.016
621.577
609.873
600.074
592.223
586.333
582.406
580.442
580.442
582.406
586.333
592.223
600.074
609.873
621.577
635.016
649.518
662.411
642.006
629.976
616.326
603.651
592.605
583.355
575.945
570.384
566.677
564.823
564.823
566.677
570.384
575.945
583.355
592.605
603.651
616.326
629.976
642.006
621.621
610.428
597.624
585.71
575.322
566.622
559.651
554.421
550.933
549.19
549.19
550.933
554.421
559.651
566.622
575.322
585.71
597.624
610.428
621.621
601.254
590.874
578.91
567.756
558.025
549.874
543.343
538.443
535.176
533.542
533.542
535.176
538.443
543.343
549.874
558.025
567.756
578.91
590.874
601.254
580.904
571.315
560.184
549.789
540.715
533.113
527.022
522.452
519.404
517.881
517.881
519.404
522.452
527.022
533.113
540.715
549.789
560.184
571.315
580.904
560.569
551.75
541.448
531.809
523.392
516.34
510.689
506.448
503.621
502.207
502.207
503.621
506.448
510.689
516.34
523.392
531.809
541.448
551.75
560.569
540.248
532.181
522.702
513.818
506.058
499.554
494.343
490.432
487.825
486.521
486.521
487.825
490.432
494.343
499.554
506.058
513.818
522.702
532.181
540.248
519.939
512.608
503.946
495.817
488.712
482.758
477.986
474.406
472.018
470.824
470.824
472.018
474.406
477.986
482.758
488.712
495.817
503.946
512.608
519.939
499.641
493.031
485.182
477.806
471.357
465.951
461.619
458.369
456.201
455.117
455.117
456.201
458.369
461.619
465.951
471.357
477.806
485.182
493.031
499.641
479.353
473.45
466.41
459.786
453.992
449.135
445.243
442.322
440.375
439.401
439.401
440.375
442.322
445.243
449.135
453.992
459.786
466.41
473.45
479.353
459.074
453.866
447.631
441.758
436.619
432.311
428.859
426.268
424.54
423.676
423.676
424.54
426.268
428.859
432.311
436.619
441.758
447.631
453.866
459.074
438.802
434.279
428.846
423.723
419.239
415.479
412.467
410.206
408.698
407.944
407.944
408.698
410.206
412.467
415.479
419.239
423.723
428.846
434.279
438.802
418.537
414.69
410.055
405.681
401.852
398.641
396.068
394.137
392.849
392.205
392.205
392.849
394.137
396.068
398.641
401.852
405.681
410.055
414.69
418.537
398.278
395.099
391.26
387.634
384.459
381.797
379.664
378.063
376.995
376.461
376.461
376.995
378.063
379.664
381.797
384.459
387.634
391.26
395.099
398.278
378.023
375.507
372.461
369.583
367.062
364.949
363.255
361.984
361.136
360.712
360.712
361.136
361.984
363.255
364.949
367.062
369.583
372.461
375.507
378.023
357.772
355.913
353.659
351.528
349.662
348.097
346.842
345.901
345.273
344.959
344.959
345.273
345.901
346.842
348.097
349.662
351.528
353.659
355.913
357.772
337.524
336.318
334.854
333.47
332.258
331.242
330.427
329.815
329.408
329.204
329.204
329.408
329.815
330.427
331.242
332.258
333.47
334.854
336.318
337.524
730.138
714.478
697.377
681.639
667.957
656.509
647.339
640.458
635.871
633.577
633.577
635.871
640.458
647.339
656.509
667.957
681.639
697.377
714.478
730.138
709.309
694.603
678.376
663.406
650.383
639.485
630.755
624.204
619.837
617.653
617.653
619.837
624.204
630.755
639.485
650.383
663.406
678.376
694.603
709.309
688.512
674.728
659.366
645.163
632.8
622.451
614.161
607.94
603.793
601.719
601.719
603.793
607.94
614.161
622.451
632.8
645.163
659.366
674.728
688.512
667.745
654.852
640.349
626.911
615.207
605.407
597.557
591.667
587.739
585.776
585.776
587.739
591.667
597.557
605.407
615.207
626.911
640.349
654.852
667.745
647.006
634.976
621.326
608.65
597.604
588.355
580.944
575.384
571.676
569.823
569.823
571.676
575.384
580.944
588.355
597.604
608.65
621.326
634.976
647.006
626.292
615.099
602.295
590.381
579.993
571.293
564.322
559.092
555.605
553.861
553.861
555.605
559.092
564.322
571.293
579.993
590.381
602.295
615.099
626.292
605.603
595.223
583.258
572.104
562.374
554.223
547.692
542.792
539.524
537.89
537.89
539.524
542.792
547.692
554.223
562.374
572.104
583.258
595.223
605.603
584.936
575.346
564.216
553.82
544.746
537.145
531.054
526.483
523.436
521.912
521.912
523.436
526.483
531.054
537.145
544.746
553.82
564.216
575.346
584.936
564.288
555.469
545.167
535.528
527.111
520.059
514.408
510.167
507.34
505.926
505.926
507.34
510.167
514.408
520.059
527.111
535.528
545.167
555.469
564.288
543.659
535.593
526.113
517.23
509.469
502.966
497.755
493.844
491.237
489.933
489.933
491.237
493.844
497.755
502.966
509.469
517.23
526.113
535.593
543.659
523.047
515.716
507.055
498.926
491.821
485.866
481.095
477.514
475.127
473.933
473.933
475.127
477.514
481.095
485.866
491.821
498.926
507.055
515.716
523.047
502.45
495.84
487.991
480.615
474.166
468.761
464.429
461.178
459.011
457.927
457.927
459.011
461.178
464.429
468.761
474.166
480.615
487.991
495.84
502.45
481.867
475.964
468.924
462.3
456.506
451.65
447.757
444.837
442.889
441.915
441.915
442.889
444.837
447.757
451.65
456.506
462.3
468.924
475.964
481.867
461.296
456.088
449.853
443.98
438.841
434.533
431.081
428.49
426.762
425.898
425.898
426.762
428.49
431.081
434.533
438.841
443.98
449.853
456.088
461.296
440.735
436.212
430.779
425.655
421.172
417.412
414.399
412.138
410.631
409.877
409.877
410.631
412.138
414.399
417.412
421.172
425.655
430.779
436.212
440.735
420.184
416.337
411.701
407.327
403.498
400.287
397.714
395.783
394.496
393.852
393.852
394.496
395.783
397.714
400.287
403.498
407.327
411.701
416.337
420.184
399.64
396.461
392.622
388.996
385.821
383.159
381.025
379.424
378.357
377.823
377.823
378.357
379.424
381.025
383.159
385.821
388.996
392.622
396.461
399.64
379.103
376.586
373.54
370.662
368.141
366.028
364.334
363.063
362.215
361.791
361.791
362.215
363.063
364.334
366.028
368.141
370.662
373.54
376.586
379.103
358.57
356.711
354.457
352.326
350.46
348.895
347.64
346.699
346.071
345.757
345.757
346.071
346.699
347.64
348.895
350.46
352.326
354.457
356.711
358.57
338.042
336.836
335.372
333.988
332.776
331.759
330.945
330.333
329.926
329.722
329.722
329.926
330.333
330.945
331.759
332.776
333.988
335.372
336.836
338.042
737.167
721.507
704.406
688.668
674.986
663.538
654.368
647.488
642.9
640.606
640.606
642.9
647.488
654.368
663.538
674.986
688.668
704.406
721.507
737.167
715.98
701.275
685.047
670.077
657.055
646.157
637.426
630.876
626.509
624.325
624.325
626.509
630.876
637.426
646.157
657.055
670.077
685.047
701.275
715.98
694.829
681.045
665.683
651.48
639.117
628.768
620.478
614.257
610.11
608.036
608.036
610.11
614.257
620.478
628.768
639.117
651.48
665.683
681.045
694.829
673.71
660.817
646.314
632.876
621.171
611.372
603.522
597.632
593.704
591.74
591.74
593.704
597.632
603.522
611.372
621.171
632.876
646.314
660.817
673.71
652.621
640.591
626.941
614.265
603.219
593.97
586.559
580.999
577.292
575.438
575.438
577.292
580.999
586.559
593.97
603.219
614.265
626.941
640.591
652.621
631.56
620.367
607.563
595.649
585.261
576.561
569.59
564.36
560.873
559.129
559.129
560.873
564.36
569.59
576.561
585.261
595.649
607.563
620.367
631.56
610.526
600.146
588.182
577.028
567.297
559.146
552.615
547.715
544.448
542.814
542.814
544.448
547.715
552.615
559.146
567.297
577.028
588.182
600.146
610.526
589.516
579.927
568.796
558.401
549.327
541.725
535.635
531.064
528.017
526.493
526.493
528.017
531.064
535.635
541.725
549.327
558.401
568.796
579.927
589.516
568.529
559.71
549.408
539.769
531.352
524.299
518.648
514.408
511.58
510.166
510.166
511.58
514.408
518.648
524.299
531.352
539.769
549.408
559.71
568.529
547.562
539.495
530.016
521.132
513.372
506.868
501.657
497.746
495.139
493.835
493.835
495.139
497.746
501.657
506.868
513.372
521.132
530.016
539.495
547.562
526.613
519.282
510.621
502.492
495.387
489.432
484.661
481.08
478.693
477.499
477.499
478.693
481.08
484.661
489.432
495.387
502.492
510.621
519.282
526.613
505.682
499.072
491.223
483.847
477.398
471.992
467.66
464.41
462.242
461.158
461.158
462.242
464.41
467.66
471.992
477.398
483.847
491.223
499.072
505.682
484.766
478.863
471.823
465.199
459.405
454.548
450.656
447.735
445.788
444.814
444.814
445.788
447.735
450.656
454.548
459.405
465.199
471.823
478.863
484.766
463.863
458.656
452.421
446.547
441.409
437.101
433.648
431.057
429.33
428.466
428.466
429.33
431.057
433.648
437.101
441.409
446.547
452.421
458.656
463.863
442.973
438.45
433.016
427.893
423.409
419.65
416.637
414.376
412.869
412.115
412.115
412.869
414.376
416.637
419.65
423.409
427.893
433.016
438.45
442.973
422.093
418.246
413.61
409.236
405.407
402.196
399.623
397.692
396.404
395.761
395.761
396.404
397.692
399.623
402.196
405.407
409.236
413.61
418.246
422.093
401.221
398.043
394.203
390.577
387.402
384.74
382.607
381.006
379.938
379.404
379.404
379.938
381.006
382.607
384.74
387.402
390.577
394.203
398.043
401.221
380.357
377.84
374.795
371.916
369.396
367.282
365.588
364.317
363.47
363.046
363.046
363.47
364.317
365.588
367.282
369.396
371.916
374.795
377.84
380.357
359.499
357.639
355.385
353.254
351.388
349.823
348.569
347.627
347
346.686
346.686
347
347.627
348.569
349.823
351.388
353.254
355.385
357.639
359.499
338.645
337.438
335.975
334.591
333.379
332.362
331.548
330.936
330.528
330.325
330.325
330.528
330.936
331.548
332.362
333.379
334.591
335.975
337.438
338.645
744.471
728.812
711.711
695.973
682.291
670.842
661.672
654.792
650.205
647.911
647.911
650.205
654.792
661.672
670.842
682.291
695.973
711.711
728.812
744.471
722.926
708.221
691.993
677.023
664.001
653.102
644.372
637.822
633.454
631.271
631.271
633.454
637.822
644.372
653.102
664.001
677.023
691.993
708.221
722.926
701.416
687.633
672.271
658.068
645.705
635.356
627.066
620.845
616.698
614.624
614.624
616.698
620.845
627.066
635.356
645.705
658.068
672.271
687.633
701.416
679.941
667.048
652.545
639.107
627.402
617.603
609.753
603.863
599.935
597.972
597.972
599.935
603.863
609.753
617.603
627.402
639.107
652.545
667.048
679.941
658.496
646.466
632.816
620.141
609.095
599.845
592.435
586.874
583.167
581.313
581.313
583.167
586.874
592.435
599.845
609.095
620.141
632.816
646.466
658.496
637.081
625.888
613.084
601.17
590.782
582.082
575.111
569.881
566.393
564.65
564.65
566.393
569.881
575.111
582.082
590.782
601.17
613.084
625.888
637.081
615.693
605.313
593.349
582.195
572.464
564.313
557.783
552.882
549.615
547.981
547.981
549.615
552.882
557.783
564.313
572.464
582.195
593.349
605.313
615.693
594.331
584.741
573.611
563.215
554.142
546.54
540.449
535.879
532.831
531.307
531.307
532.831
535.879
540.449
546.54
554.142
563.215
573.611
584.741
594.331
572.992
564.173
553.87
544.232
535.815
528.762
523.111
518.871
516.043
514.629
514.629
516.043
518.871
523.111
528.762
535.815
544.232
553.87
564.173
572.992
551.674
543.607
534.128
525.244
517.484
510.98
505.769
501.858
499.251
497.947
497.947
499.251
501.858
505.769
510.98
517.484
525.244
534.128
543.607
551.674
530.375
523.044
514.383
506.254
499.149
493.195
488.423
484.842
482.455
481.261
481.261
482.455
484.842
488.423
493.195
499.149
506.254
514.383
523.044
530.375
509.095
502.485
494.636
487.26
480.811
475.405
471.073
467.823
465.655
464.571
464.571
465.655
467.823
471.073
475.405
480.811
487.26
494.636
502.485
509.095
487.83
481.927
474.887
468.263
462.469
457.613
453.721
450.8
448.852
447.878
447.878
448.852
450.8
453.721
457.613
462.469
468.263
474.887
481.927
487.83
466.58
461.372
455.137
449.264
444.125
439.817
436.365
433.774
432.046
431.183
431.183
432.046
433.774
436.365
439.817
444.125
449.264
455.137
461.372
466.58
445.342
440.819
435.386
430.262
425.779
422.019
419.006
416.745
415.238
414.484
414.484
415.238
416.745
419.006
422.019
425.779
430.262
435.386
440.819
445.342
424.115
420.268
415.633
411.259
407.43
404.219
401.646
399.715
398.427
397.783
397.783
398.427
399.715
401.646
404.219
407.43
411.259
415.633
420.268
424.115
402.898
399.719
395.88
392.254
389.079
386.417
384.283
382.682
381.615
381.081
381.081
381.615
382.682
384.283
386.417
389.079
392.254
395.88
399.719
402.898
381.688
379.171
376.125
373.247
370.727
368.613
366.919
365.648
364.8
364.376
364.376
364.8
365.648
366.919
368.613
370.727
373.247
376.125
379.171
381.688
360.484
358.624
356.37
354.239
352.373
350.808
349.554
348.612
347.985
347.671
347.671
347.985
348.612
349.554
350.808
352.373
354.239
356.37
358.624
360.484
339.285
338.078
336.615
335.231
334.019
333.002
332.187
331.576
331.168
330.964
330.964
331.168
331.576
332.187
333.002
334.019
335.231
336.615
338.078
339.285
751.892
736.233
719.132
703.394
689.712
678.264
669.093
662.213
657.626
655.332
655.332
657.626
662.213
669.093
678.264
689.712
703.394
719.132
736.233
751.892
729.987
715.282
699.054
684.085
671.062
660.164
651.434
644.883
640.516
638.332
638.332
640.516
644.883
651.434
660.164
671.062
684.085
699.054
715.282
729.987
708.119
694.335
678.973
664.77
652.407
642.058
633.768
627.548
623.4
621.327
621.327
623.4
627.548
633.768
642.058
652.407
664.77
678.973
694.335
708.119
686.285
673.392
658.889
645.451
633.746
623.947
616.097
610.207
606.279
604.315
604.315
606.279
610.207
616.097
623.947
633.746
645.451
658.889
673.392
686.285
664.482
652.452
638.802
626.127
615.081
605.831
598.421
592.86
589.153
587.299
587.299
589.153
592.86
598.421
605.831
615.081
626.127
638.802
652.452
664.482
642.709
631.516
618.712
606.798
596.41
587.71
580.739
575.509
572.021
570.278
570.278
572.021
575.509
580.739
587.71
596.41
606.798
618.712
631.516
642.709
620.964
610.584
598.62
587.466
577.735
569.584
563.053
558.153
554.885
553.252
553.252
554.885
558.153
563.053
569.584
577.735
587.466
598.62
610.584
620.964
599.245
589.655
578.525
568.129
559.055
551.454
545.363
540.792
537.745
536.221
536.221
537.745
540.792
545.363
551.454
559.055
568.129
578.525
589.655
599.245
577.549
568.73
558.428
548.789
540.372
533.32
527.668
523.428
520.6
519.187
519.187
520.6
523.428
527.668
533.32
540.372
548.789
558.428
568.73
577.549
555.875
547.808
538.329
529.446
521.685
515.182
509.97
506.06
503.452
502.148
502.148
503.452
506.06
509.97
515.182
521.685
529.446
538.329
547.808
555.875
534.221
526.89
518.228
510.099
502.994
497.04
492.268
488.688
486.3
485.107
485.107
486.3
488.688
492.268
497.04
502.994
510.099
518.228
526.89
534.221
512.585
505.975
498.126
490.75
484.301
478.895
474.563
471.313
469.145
468.061
468.061
469.145
471.313
474.563
478.895
484.301
490.75
498.126
505.975
512.585
490.965
485.062
478.022
471.398
465.604
460.748
456.856
453.935
451.987
451.013
451.013
451.987
453.935
456.856
460.748
465.604
471.398
478.022
485.062
490.965
469.36
464.152
457.917
452.044
446.905
442.598
439.145
436.554
434.827
433.963
433.963
434.827
436.554
439.145
442.598
446.905
452.044
457.917
464.152
469.36
447.768
443.245
437.811
432.688
428.204
424.445
421.432
419.171
417.664
416.91
416.91
417.664
419.171
421.432
424.445
428.204
432.688
437.811
443.245
447.768
426.187
422.34
417.704
413.33
409.501
406.29
403.717
401.786
400.498
399.855
399.855
400.498
401.786
403.717
406.29
409.501
413.33
417.704
422.34
426.187
404.615
401.436
397.597
393.971
390.796
388.134
386
384.399
383.332
382.798
382.798
383.332
384.399
386
388.134
390.796
393.971
397.597
401.436
404.615
383.051
380.534
377.488
374.61
372.09
369.976
368.282
367.011
366.163
365.74
365.74
366.163
367.011
368.282
369.976
372.09
374.61
377.488
380.534
383.051
361.493
359.634
357.379
355.249
353.382
351.817
350.563
349.622
348.994
348.68
348.68
348.994
349.622
350.563
351.817
353.382
355.249
357.379
359.634
361.493
339.94
338.734
337.27
335.886
334.674
333.658
332.843
332.231
331.824
331.62
331.62
331.824
332.231
332.843
333.658
334.674
335.886
337.27
338.734
339.94
759.363
743.703
726.603
710.864
697.183
685.734
676.564
669.684
665.096
662.803
662.803
665.096
669.684
676.564
685.734
697.183
710.864
726.603
743.703
759.363
737.098
722.393
706.165
691.195
678.173
667.275
658.544
651.994
647.627
645.443
645.443
647.627
651.994
658.544
667.275
678.173
691.195
706.165
722.393
737.098
714.87
701.086
685.725
671.521
659.158
648.809
640.519
634.299
630.152
628.078
628.078
630.152
634.299
640.519
648.809
659.158
671.521
685.725
701.086
714.87
692.676
679.784
665.281
651.842
640.138
630.339
622.489
616.598
612.671
610.707
610.707
612.671
616.598
622.489
630.339
640.138
651.842
665.281
679.784
692.676
670.515
658.485
644.835
632.159
621.113
611.864
604.453
598.893
595.185
593.332
593.332
595.185
598.893
604.453
611.864
621.113
632.159
644.835
658.485
670.515
648.383
637.19
624.386
612.472
602.084
593.383
586.413
581.182
577.695
575.951
575.951
577.695
581.182
586.413
593.383
602.084
612.472
624.386
637.19
648.383
626.279
615.898
603.934
592.78
583.05
574.899
568.368
563.468
560.2
558.566
558.566
560.2
563.468
568.368
574.899
583.05
592.78
603.934
615.898
626.279
604.201
594.611
583.481
573.085
564.011
556.41
550.319
545.748
542.701
541.177
541.177
542.701
545.748
550.319
556.41
564.011
573.085
583.481
594.611
604.201
582.146
573.327
563.025
553.387
544.97
537.917
532.266
528.025
525.198
523.784
523.784
525.198
528.025
532.266
537.917
544.97
553.387
563.025
573.327
582.146
560.114
552.047
542.568
533.685
525.924
519.421
514.209
510.299
507.691
506.388
506.388
507.691
510.299
514.209
519.421
525.924
533.685
542.568
552.047
560.114
538.102
530.771
522.109
513.98
506.875
500.921
496.149
492.569
490.181
488.987
488.987
490.181
492.569
496.149
500.921
506.875
513.98
522.109
530.771
538.102
516.108
509.498
501.649
494.273
487.824
482.418
478.086
474.836
472.668
471.584
471.584
472.668
474.836
478.086
482.418
487.824
494.273
501.649
509.498
516.108
494.13
488.227
481.187
474.563
468.769
463.913
460.021
457.1
455.152
454.178
454.178
455.152
457.1
460.021
463.913
468.769
474.563
481.187
488.227
494.13
472.167
466.96
460.725
454.851
449.713
445.405
441.952
439.361
437.634
436.77
436.77
437.634
439.361
441.952
445.405
449.713
454.851
460.725
466.96
472.167
450.217
445.694
440.261
435.138
430.654
426.894
423.882
421.621
420.113
419.359
419.359
420.113
421.621
423.882
426.894
430.654
435.138
440.261
445.694
450.217
428.278
424.432
419.796
415.422
411.593
408.382
405.809
403.878
402.59
401.947
401.947
402.59
403.878
405.809
408.382
411.593
415.422
419.796
424.432
428.278
406.349
403.171
399.331
395.705
392.53
389.868
387.735
386.134
385.066
384.532
384.532
385.066
386.134
387.735
389.868
392.53
395.705
399.331
403.171
406.349
384.428
381.911
378.865
375.987
373.467
371.353
369.659
368.388
367.54
367.117
367.117
367.54
368.388
369.659
371.353
373.467
375.987
378.865
381.911
384.428
362.513
360.653
358.399
356.268
354.402
352.837
351.583
350.641
350.014
349.7
349.7
350.014
350.641
351.583
352.837
354.402
356.268
358.399
360.653
362.513
340.602
339.396
337.932
336.548
335.336
334.32
333.505
332.894
332.486
332.282
332.282
332.486
332.894
333.505
334.32
335.336
336.548
337.932
339.396
340.602
766.855
751.195
734.094
718.356
704.674
693.226
684.056
677.175
672.588
670.294
670.294
672.588
677.175
684.056
693.226
704.674
718.356
734.094
751.195
766.855
744.23
729.525
713.297
698.327
685.305
674.406
665.676
659.126
654.758
652.575
652.575
654.758
659.126
665.676
674.406
685.305
698.327
713.297
729.525
744.23
721.642
707.858
692.497
678.293
665.93
655.581
647.291
641.071
636.923
634.85
634.85
636.923
641.071
647.291
655.581
665.93
678.293
692.497
707.858
721.642
699.088
686.196
671.693
658.255
646.55
636.751
628.901
623.011
619.083
617.119
617.119
619.083
623.011
628.901
636.751
646.55
658.255
671.693
686.196
699.088
676.567
664.537
650.887
638.212
627.166
617.916
610.506
604.945
601.238
599.384
599.384
601.238
604.945
610.506
617.916
627.166
638.212
650.887
664.537
676.567
654.076
642.882
630.078
618.165
607.776
599.076
592.106
586.875
583.388
581.644
581.644
583.388
586.875
592.106
599.076
607.776
618.165
630.078
642.882
654.076
631.612
621.232
609.268
598.114
588.383
580.232
573.701
568.801
565.533
563.9
563.9
565.533
568.801
573.701
580.232
588.383
598.114
609.268
621.232
631.612
609.175
599.585
588.455
578.059
568.985
561.384
555.293
550.722
547.675
546.151
546.151
547.675
550.722
555.293
561.384
568.985
578.059
588.455
599.585
609.175
586.761
577.942
567.64
558.001
549.584
542.532
536.881
532.64
529.813
528.399
528.399
529.813
532.64
536.881
542.532
549.584
558.001
567.64
577.942
586.761
564.369
556.303
546.823
537.94
530.179
523.676
518.465
514.554
511.947
510.643
510.643
511.947
514.554
518.465
523.676
530.179
537.94
546.823
556.303
564.369
541.998
534.667
526.005
517.876
510.771
504.817
500.045
496.465
494.077
492.884
492.884
494.077
496.465
500.045
504.817
510.771
517.876
526.005
534.667
541.998
519.645
513.034
505.186
497.81
491.361
485.955
481.623
478.373
476.205
475.121
475.121
476.205
478.373
481.623
485.955
491.361
497.81
505.186
513.034
519.645
497.308
491.405
484.365
477.741
471.947
467.091
463.198
460.277
458.33
457.356
457.356
458.33
460.277
463.198
467.091
471.947
477.741
484.365
491.405
497.308
474.986
469.778
463.543
457.67
452.531
448.223
444.771
442.18
440.452
439.589
439.589
440.452
442.18
444.771
448.223
452.531
457.67
463.543
469.778
474.986
452.677
448.154
442.721
437.597
433.113
429.354
426.341
424.08
422.573
421.819
421.819
422.573
424.08
426.341
429.354
433.113
437.597
442.721
448.154
452.677
430.379
426.532
421.897
417.523
413.694
410.483
407.91
405.979
404.691
404.047
404.047
404.691
405.979
407.91
410.483
413.694
417.523
421.897
426.532
430.379
408.091
404.912
401.073
397.447
394.272
391.61
389.477
387.875
386.808
386.274
386.274
386.808
387.875
389.477
391.61
394.272
397.447
401.073
404.912
408.091
385.811
383.294
380.248
377.37
374.85
372.736
371.042
369.771
368.923
368.499
368.499
368.923
369.771
371.042
372.736
374.85
377.37
380.248
383.294
385.811
363.537
361.677
359.423
357.292
355.426
353.861
352.607
351.665
351.038
350.724
350.724
351.038
351.665
352.607
353.861
355.426
357.292
359.423
361.677
363.537
341.267
340.061
338.597
337.214
336.001
334.985
334.17
333.559
333.151
332.947
332.947
333.151
333.559
334.17
334.985
336.001
337.214
338.597
340.061
341.267
774.355
758.695
741.595
725.856
712.175
700.726
691.556
684.676
680.088
677.795
677.795
680.088
684.676
691.556
700.726
712.175
725.856
741.595
758.695
774.355
751.37
736.665
720.437
705.467
692.445
681.547
672.817
666.266
661.899
659.715
659.715
661.899
666.266
672.817
681.547
692.445
705.467
720.437
736.665
751.37
728.422
714.639
699.277
685.074
672.711
662.362
654.072
647.851
643.704
641.63
641.63
643.704
647.851
654.072
662.362
672.711
685.074
699.277
714.639
728.422
705.509
692.616
678.114
664.675
652.971
643.172
635.321
629.431
625.504
623.54
623.54
625.504
629.431
635.321
643.172
652.971
664.675
678.114
692.616
705.509
682.628
670.598
656.948
644.272
633.226
623.977
616.566
611.006
607.299
605.445
605.445
607.299
611.006
616.566
623.977
633.226
644.272
656.948
670.598
682.628
659.777
648.583
635.779
623.866
613.477
604.777
597.807
592.576
589.089
587.345
587.345
589.089
592.576
597.807
604.777
613.477
623.866
635.779
648.583
659.777
636.953
626.573
614.609
603.455
593.724
585.573
579.042
574.142
570.875
569.241
569.241
570.875
574.142
579.042
585.573
593.724
603.455
614.609
626.573
636.953
614.156
604.566
593.436
583.04
573.967
566.365
560.274
555.704
552.656
551.133
551.133
552.656
555.704
560.274
566.365
573.967
583.04
593.436
604.566
614.156
591.383
582.564
572.261
562.623
554.206
547.153
541.502
537.262
534.434
533.02
533.02
534.434
537.262
541.502
547.153
554.206
562.623
572.261
582.564
591.383
568.631
560.565
551.085
542.202
534.441
527.938
522.727
518.816
516.209
514.905
514.905
516.209
518.816
522.727
527.938
534.441
542.202
551.085
560.565
568.631
545.9
538.569
529.908
521.779
514.674
508.719
503.948
500.367
497.98
496.786
496.786
497.98
500.367
503.948
508.719
514.674
521.779
529.908
538.569
545.9
523.187
516.577
508.728
501.353
494.903
489.498
485.166
481.915
479.748
478.664
478.664
479.748
481.915
485.166
489.498
494.903
501.353
508.728
516.577
523.187
500.491
494.588
487.548
480.924
475.13
470.274
466.381
463.461
461.513
460.539
460.539
461.513
463.461
466.381
470.274
475.13
480.924
487.548
494.588
500.491
477.809
472.602
466.367
460.494
455.355
451.047
447.594
445.003
443.276
442.412
442.412
443.276
445.003
447.594
451.047
455.355
460.494
466.367
472.602
477.809
455.141
450.618
445.184
440.061
435.577
431.818
428.805
426.544
425.037
424.283
424.283
425.037
426.544
428.805
431.818
435.577
440.061
445.184
450.618
455.141
432.483
428.637
424.001
419.627
415.798
412.587
410.014
408.083
406.795
406.152
406.152
406.795
408.083
410.014
412.587
415.798
419.627
424.001
428.637
432.483
409.836
406.657
402.818
399.192
396.017
393.355
391.221
389.62
388.553
388.019
388.019
388.553
389.62
391.221
393.355
396.017
399.192
402.818
406.657
409.836
387.196
384.679
381.633
378.755
376.235
374.121
372.427
371.156
370.309
369.885
369.885
370.309
371.156
372.427
374.121
376.235
378.755
381.633
384.679
387.196
364.563
362.703
360.449
358.318
356.452
354.887
353.632
352.691
352.063
351.749
351.749
352.063
352.691
353.632
354.887
356.452
358.318
360.449
362.703
364.563
341.934
340.727
339.264
337.88
336.668
335.651
334.836
334.225
333.817
333.613
333.613
333.817
334.225
334.836
335.651
336.668
337.88
339.264
340.727
341.934
781.859
766.199
749.098
733.36
719.679
708.23
699.06
692.18
687.592
685.299
685.299
687.592
692.18
699.06
708.23
719.679
733.36
749.098
766.199
781.859
758.514
743.809
727.581
712.611
699.589
688.691
679.96
673.41
669.043
666.859
666.859
669.043
673.41
679.96
688.691
699.589
712.611
727.581
743.809
758.514
735.206
721.423
706.061
691.858
679.495
669.146
660.856
654.635
650.488
648.414
648.414
650.488
654.635
660.856
669.146
679.495
691.858
706.061
721.423
735.206
711.933
699.04
684.538
671.099
659.395
649.596
641.745
635.855
631.928
629.964
629.964
631.928
635.855
641.745
649.596
659.395
671.099
684.538
699.04
711.933
688.692
676.662
663.012
650.336
639.29
630.041
622.63