/*--------------------------------*- C++ -*----------------------------------*\
| =========                 |                                                 |
| \\      /  F ield         | OpenFOAM: The Open Source CFD Toolbox           |
|  \\    /   O peration     | Version:  v1812                                 |
|   \\  /    A nd           | Web:      www.OpenFOAM.com                      |
|    \\/     M anipulation  |                                                 |
\*---------------------------------------------------------------------------*/
FoamFile
{
    version     2.0;
    format      ascii;
    class       volScalarField;
    location    "1";
    object      T;
}
// * * * * * * * * * * * * * * * * * * * * * * * * * * * * * * * * * * * * * //

dimensions      [0 0 0 1 0 0 0];


internalField   nonuniform List<scalar> 
1000
(
-1.73946
-1.75638
-1.78388
-1.81799
-1.85572
-1.89454
-1.93202
-1.96566
-1.99253
-2.00883
-1.69244
-1.70335
-1.7226
-1.74753
-1.77573
-1.80495
-1.83302
-1.85773
-1.8767
-1.88738
-1.62276
-1.63023
-1.64393
-1.66215
-1.68306
-1.70484
-1.7257
-1.74381
-1.75738
-1.76476
-1.53753
-1.54282
-1.5527
-1.56604
-1.58149
-1.59765
-1.61307
-1.62635
-1.63618
-1.64143
-1.44129
-1.44511
-1.4523
-1.4621
-1.47351
-1.48547
-1.49688
-1.50664
-1.51381
-1.51761
-1.3371
-1.33989
-1.34518
-1.3524
-1.36086
-1.36974
-1.37819
-1.3854
-1.39068
-1.39346
-1.22709
-1.22916
-1.23308
-1.23846
-1.24477
-1.2514
-1.25771
-1.26308
-1.267
-1.26907
-1.11277
-1.11433
-1.11729
-1.12136
-1.12613
-1.13115
-1.13592
-1.13998
-1.14294
-1.1445
-0.995202
-0.996408
-0.998701
-1.00185
-1.00556
-1.00945
-1.01315
-1.0163
-1.01859
-1.0198
-0.875121
-0.876095
-0.877947
-0.880495
-0.883488
-0.886634
-0.889626
-0.892173
-0.894024
-0.894997
-1.75764
-1.77448
-1.8019
-1.83594
-1.87363
-1.91246
-1.95001
-1.98378
-2.0108
-2.02724
-1.7042
-1.71508
-1.73429
-1.7592
-1.78738
-1.8166
-1.8447
-1.86946
-1.88849
-1.89921
-1.63083
-1.63829
-1.65198
-1.67018
-1.69109
-1.71287
-1.73374
-1.75187
-1.76547
-1.77286
-1.54326
-1.54854
-1.55842
-1.57174
-1.58719
-1.60335
-1.61878
-1.63207
-1.6419
-1.64716
-1.44543
-1.44924
-1.45643
-1.46622
-1.47764
-1.4896
-1.501
-1.51078
-1.51795
-1.52175
-1.34012
-1.34291
-1.3482
-1.35543
-1.36388
-1.37276
-1.38121
-1.38843
-1.3937
-1.39649
-1.22933
-1.2314
-1.23532
-1.2407
-1.24701
-1.25364
-1.25995
-1.26532
-1.26924
-1.27131
-1.11446
-1.11602
-1.11898
-1.12304
-1.12782
-1.13283
-1.13761
-1.14167
-1.14463
-1.14619
-0.996509
-0.997715
-1.00001
-1.00316
-1.00686
-1.01076
-1.01446
-1.01761
-1.0199
-1.02111
-0.876176
-0.877151
-0.879003
-0.88155
-0.884543
-0.887689
-0.890681
-0.893228
-0.895079
-0.896053
-1.78733
-1.80408
-1.83137
-1.8653
-1.90293
-1.94176
-1.9794
-2.0133
-2.0405
-2.05709
-1.72501
-1.73585
-1.75501
-1.77987
-1.80802
-1.83725
-1.86538
-1.89021
-1.90931
-1.92009
-1.64565
-1.6531
-1.66676
-1.68495
-1.70584
-1.72763
-1.74851
-1.76667
-1.7803
-1.78771
-1.55395
-1.55923
-1.56909
-1.58241
-1.59786
-1.61401
-1.62945
-1.64275
-1.6526
-1.65787
-1.45321
-1.45703
-1.46421
-1.474
-1.48541
-1.49737
-1.50878
-1.51856
-1.52574
-1.52954
-1.34584
-1.34864
-1.35392
-1.36114
-1.3696
-1.37847
-1.38693
-1.39415
-1.39942
-1.40221
-1.23358
-1.23565
-1.23957
-1.24495
-1.25126
-1.25789
-1.2642
-1.26957
-1.27349
-1.27556
-1.11766
-1.11922
-1.12218
-1.12625
-1.13102
-1.13604
-1.14081
-1.14488
-1.14784
-1.1494
-0.998992
-1.0002
-1.00249
-1.00564
-1.00935
-1.01324
-1.01694
-1.02009
-1.02238
-1.02359
-0.878182
-0.879157
-0.881009
-0.883556
-0.886549
-0.889695
-0.892687
-0.895234
-0.897085
-0.898059
-1.82426
-1.84092
-1.8681
-1.90193
-1.93949
-1.97831
-2.016
-2.05001
-2.07735
-2.09407
-1.75201
-1.76281
-1.78192
-1.80673
-1.83485
-1.86408
-1.89224
-1.91712
-1.93629
-1.94711
-1.66538
-1.67281
-1.68645
-1.70461
-1.72549
-1.74728
-1.76817
-1.78636
-1.80002
-1.80745
-1.56839
-1.57366
-1.58352
-1.59682
-1.61226
-1.62842
-1.64387
-1.65718
-1.66704
-1.67231
-1.46382
-1.46763
-1.47481
-1.48459
-1.496
-1.50797
-1.51938
-1.52916
-1.53634
-1.54015
-1.35367
-1.35646
-1.36174
-1.36897
-1.37742
-1.3863
-1.39475
-1.40198
-1.40725
-1.41004
-1.23941
-1.24148
-1.2454
-1.25078
-1.25709
-1.26372
-1.27002
-1.2754
-1.27932
-1.28139
-1.12207
-1.12363
-1.12659
-1.13066
-1.13543
-1.14045
-1.14522
-1.14929
-1.15224
-1.1538
-1.00241
-1.00361
-1.00591
-1.00906
-1.01276
-1.01665
-1.02036
-1.02351
-1.0258
-1.02701
-0.880942
-0.881916
-0.883768
-0.886315
-0.889308
-0.892454
-0.895447
-0.897993
-0.899845
-0.900819
-1.86521
-1.88181
-1.9089
-1.94265
-1.98017
-2.01898
-2.05669
-2.09076
-2.11818
-2.13496
-1.78258
-1.79336
-1.81243
-1.83721
-1.86531
-1.89453
-1.92271
-1.94761
-1.96681
-1.97766
-1.68805
-1.69547
-1.70909
-1.72724
-1.7481
-1.76989
-1.79079
-1.80899
-1.82266
-1.83011
-1.58513
-1.5904
-1.60025
-1.61355
-1.62899
-1.64514
-1.66059
-1.67391
-1.68378
-1.68906
-1.47619
-1.48
-1.48718
-1.49695
-1.50836
-1.52033
-1.53174
-1.54152
-1.54871
-1.55252
-1.36284
-1.36563
-1.3709
-1.37813
-1.38658
-1.39546
-1.40391
-1.41114
-1.41641
-1.4192
-1.24624
-1.24831
-1.25223
-1.25761
-1.26392
-1.27055
-1.27686
-1.28224
-1.28616
-1.28823
-1.12724
-1.1288
-1.13176
-1.13583
-1.1406
-1.14562
-1.15039
-1.15446
-1.15742
-1.15897
-1.00642
-1.00762
-1.00992
-1.01307
-1.01677
-1.02066
-1.02437
-1.02752
-1.02981
-1.03102
-0.884184
-0.885158
-0.88701
-0.889557
-0.89255
-0.895696
-0.898689
-0.901235
-0.903087
-0.904061
-1.90737
-1.92396
-1.95103
-1.98475
-2.02225
-2.06105
-2.09877
-2.13284
-2.16026
-2.17703
-1.81428
-1.82505
-1.84412
-1.86888
-1.89698
-1.92619
-1.95437
-1.97928
-1.99848
-2.00933
-1.71166
-1.71908
-1.7327
-1.75085
-1.77171
-1.7935
-1.8144
-1.8326
-1.84627
-1.85372
-1.60264
-1.60791
-1.61776
-1.63106
-1.64649
-1.66265
-1.6781
-1.69142
-1.70128
-1.70656
-1.48915
-1.49296
-1.50014
-1.50991
-1.52132
-1.53329
-1.5447
-1.55448
-1.56167
-1.56548
-1.37245
-1.37524
-1.38052
-1.38774
-1.39619
-1.40507
-1.41352
-1.42075
-1.42603
-1.42882
-1.25342
-1.25549
-1.25941
-1.26479
-1.2711
-1.27773
-1.28404
-1.28942
-1.29334
-1.29541
-1.13268
-1.13423
-1.13719
-1.14126
-1.14603
-1.15105
-1.15582
-1.15989
-1.16285
-1.16441
-1.01063
-1.01184
-1.01413
-1.01729
-1.02099
-1.02488
-1.02858
-1.03173
-1.03403
-1.03523
-0.887592
-0.888566
-0.890418
-0.892965
-0.895958
-0.899104
-0.902097
-0.904643
-0.906495
-0.907469
-1.94808
-1.96471
-1.99183
-2.0256
-2.06313
-2.10193
-2.13962
-2.17364
-2.20097
-2.21767
-1.84473
-1.85552
-1.87462
-1.89941
-1.92751
-1.95673
-1.9849
-2.00977
-2.02894
-2.03975
-1.73427
-1.74169
-1.75533
-1.77348
-1.79436
-1.81614
-1.83704
-1.85522
-1.86887
-1.87631
-1.61936
-1.62463
-1.63448
-1.64779
-1.66323
-1.67939
-1.69483
-1.70814
-1.718
-1.72327
-1.5015
-1.50531
-1.51249
-1.52227
-1.53368
-1.54565
-1.55706
-1.56684
-1.57402
-1.57783
-1.3816
-1.38439
-1.38967
-1.3969
-1.40535
-1.41423
-1.42268
-1.42991
-1.43518
-1.43797
-1.26026
-1.26232
-1.26625
-1.27163
-1.27794
-1.28456
-1.29087
-1.29625
-1.30017
-1.30224
-1.13785
-1.1394
-1.14236
-1.14643
-1.15121
-1.15622
-1.161
-1.16506
-1.16802
-1.16958
-1.01464
-1.01585
-1.01814
-1.0213
-1.025
-1.02889
-1.03259
-1.03575
-1.03804
-1.03924
-0.890833
-0.891807
-0.893659
-0.896206
-0.899199
-0.902346
-0.905338
-0.907885
-0.909737
-0.91071
-1.98454
-2.00127
-2.02853
-2.06241
-2.1
-2.13883
-2.17647
-2.21038
-2.23757
-2.25412
-1.87151
-1.88234
-1.90149
-1.92633
-1.95448
-1.9837
-2.01184
-2.03667
-2.05576
-2.06653
-1.75389
-1.76133
-1.77499
-1.79317
-1.81406
-1.83585
-1.85673
-1.87489
-1.88852
-1.89593
-1.63375
-1.63903
-1.64889
-1.66221
-1.67765
-1.69381
-1.70925
-1.72256
-1.7324
-1.73766
-1.51208
-1.5159
-1.52308
-1.53287
-1.54428
-1.55625
-1.56765
-1.57743
-1.58461
-1.58841
-1.38942
-1.39221
-1.3975
-1.40472
-1.41318
-1.42205
-1.43051
-1.43773
-1.443
-1.44579
-1.26608
-1.26815
-1.27207
-1.27745
-1.28376
-1.29039
-1.2967
-1.30208
-1.306
-1.30806
-1.14225
-1.14381
-1.14677
-1.15084
-1.15561
-1.16063
-1.1654
-1.16947
-1.17242
-1.17398
-1.01806
-1.01926
-1.02156
-1.02471
-1.02841
-1.0323
-1.03601
-1.03916
-1.04145
-1.04266
-0.893591
-0.894566
-0.896418
-0.898965
-0.901958
-0.905104
-0.908097
-0.910644
-0.912495
-0.913469
-2.01358
-2.03046
-2.05789
-2.09192
-2.12962
-2.16847
-2.20606
-2.23984
-2.26682
-2.28318
-1.89203
-1.90292
-1.92214
-1.94705
-1.97524
-2.00448
-2.03259
-2.05736
-2.07637
-2.08706
-1.76858
-1.77605
-1.78974
-1.80795
-1.82886
-1.85065
-1.87152
-1.88965
-1.90324
-1.91063
-1.64438
-1.64967
-1.65955
-1.67288
-1.68833
-1.70449
-1.71993
-1.73322
-1.74305
-1.7483
-1.51984
-1.52366
-1.53085
-1.54065
-1.55206
-1.56403
-1.57543
-1.5852
-1.59237
-1.59618
-1.39513
-1.39793
-1.40321
-1.41044
-1.4189
-1.42777
-1.43622
-1.44344
-1.44872
-1.4515
-1.27032
-1.27239
-1.27632
-1.2817
-1.28801
-1.29464
-1.30095
-1.30632
-1.31024
-1.31231
-1.14545
-1.14701
-1.14997
-1.15404
-1.15882
-1.16383
-1.1686
-1.17267
-1.17563
-1.17719
-1.02054
-1.02175
-1.02404
-1.02719
-1.0309
-1.03479
-1.03849
-1.04164
-1.04393
-1.04514
-0.895596
-0.896571
-0.898423
-0.90097
-0.903964
-0.90711
-0.910102
-0.912649
-0.9145
-0.915474
-2.03114
-2.04815
-2.07574
-2.10991
-2.1477
-2.18658
-2.22412
-2.25777
-2.28458
-2.30076
-1.90355
-1.91449
-1.93377
-1.95874
-1.98696
-2.01621
-2.0443
-2.06901
-2.08796
-2.0986
-1.77656
-1.78404
-1.79776
-1.81599
-1.83691
-1.85871
-1.87957
-1.89768
-1.91125
-1.91862
-1.65007
-1.65536
-1.66525
-1.67859
-1.69405
-1.71021
-1.72564
-1.73892
-1.74874
-1.75399
-1.52396
-1.52778
-1.53498
-1.54477
-1.55619
-1.56816
-1.57956
-1.58933
-1.59649
-1.60029
-1.39815
-1.40094
-1.40623
-1.41346
-1.42192
-1.43079
-1.43924
-1.44646
-1.45173
-1.45452
-1.27256
-1.27463
-1.27855
-1.28394
-1.29025
-1.29688
-1.30318
-1.30856
-1.31248
-1.31454
-1.14714
-1.1487
-1.15166
-1.15573
-1.1605
-1.16552
-1.17029
-1.17436
-1.17732
-1.17887
-1.02185
-1.02305
-1.02535
-1.0285
-1.0322
-1.03609
-1.0398
-1.04295
-1.04524
-1.04645
-0.896651
-0.897625
-0.899478
-0.902025
-0.905018
-0.908165
-0.911157
-0.913704
-0.915555
-0.916529
)
;

boundaryField
{
    hotSide
    {
        type            fixedGradient;
        gradient        nonuniform List<scalar> 
100
(
-0.119362
-0.250754
-0.383182
-0.515866
-0.648206
-0.779665
-0.909639
-1.03733
-1.16167
-1.28119
-0.243351
-0.373378
-0.504256
-0.635527
-0.766891
-0.898068
-1.02864
-1.15792
-1.28482
-1.4078
-0.36668
-0.495367
-0.62473
-0.754607
-0.884978
-1.01579
-1.1468
-1.2774
-1.40649
-1.53246
-0.488947
-0.616599
-0.744739
-0.873465
-1.00299
-1.13347
-1.26479
-1.39641
-1.52723
-1.65552
-0.610029
-0.737197
-0.864625
-0.992621
-1.12159
-1.25183
-1.38334
-1.51563
-1.64757
-1.77736
-0.729933
-0.857355
-0.984745
-1.11256
-1.24133
-1.37147
-1.50303
-1.63555
-1.76788
-1.89817
-0.848634
-0.97716
-1.10528
-1.23352
-1.36248
-1.49263
-1.62405
-1.75628
-1.88815
-2.01776
-0.965909
-1.09642
-1.22603
-1.3553
-1.48482
-1.61504
-1.74606
-1.87737
-2.00782
-2.13545
-1.0812
-1.2145
-1.34632
-1.47712
-1.60747
-1.73774
-1.86799
-1.99768
-2.12564
-2.24994
-1.1935
-1.33026
-1.46483
-1.59755
-1.72886
-1.85904
-1.98805
-2.11534
-2.23972
-2.35929
)
;
    }
    coldSide
    {
        type            mixed;
        refValue        nonuniform List<scalar> 
100
(
4.68493e-310
4.68493e-310
4.68493e-310
4.68493e-310
4.68493e-310
4.68493e-310
4.68493e-310
4.68493e-310
4.68493e-310
4.68493e-310
4.68493e-310
4.68493e-310
4.68493e-310
4.68493e-310
4.68493e-310
4.68493e-310
4.68493e-310
4.68493e-310
4.68493e-310
4.68493e-310
4.68493e-310
4.68493e-310
4.68493e-310
4.68493e-310
4.68493e-310
4.68493e-310
4.68493e-310
4.68493e-310
4.68493e-310
4.68493e-310
4.68493e-310
4.68493e-310
4.68493e-310
4.68493e-310
4.68493e-310
4.68493e-310
4.68493e-310
4.68493e-310
4.68493e-310
4.68493e-310
4.68493e-310
4.68493e-310
4.68493e-310
4.68493e-310
4.68493e-310
4.68493e-310
4.68493e-310
4.68493e-310
4.68493e-310
4.68493e-310
4.68493e-310
4.68493e-310
4.68493e-310
4.68493e-310
4.68493e-310
4.68493e-310
4.68493e-310
4.68493e-310
4.68493e-310
4.68493e-310
4.68493e-310
4.68493e-310
4.68493e-310
4.68493e-310
4.68493e-310
4.68493e-310
4.68493e-310
4.68493e-310
4.68493e-310
4.68493e-310
4.68493e-310
4.68493e-310
4.68493e-310
4.68493e-310
4.68493e-310
4.68493e-310
4.68493e-310
4.68493e-310
4.68493e-310
4.68493e-310
4.68493e-310
4.68493e-310
4.68493e-310
4.68493e-310
4.68493e-310
4.68493e-310
4.68493e-310
4.68493e-310
4.68493e-310
4.68493e-310
4.68493e-310
4.68493e-310
4.68493e-310
4.68493e-310
4.68493e-310
4.68493e-310
4.68493e-310
4.68493e-310
4.68493e-310
4.68493e-310
)
;
        refGradient     uniform 0;
        valueFraction   nonuniform List<scalar> 
100
(
0.0697674
0.0697674
0.0697674
0.0697674
0.0697674
0.0697674
0.0697674
0.0697674
0.0697674
0.0697674
0.0697674
0.0697674
0.0697674
0.0697674
0.0697674
0.0697674
0.0697674
0.0697674
0.0697674
0.0697674
0.0697674
0.0697674
0.0697674
0.0697674
0.0697674
0.0697674
0.0697674
0.0697674
0.0697674
0.0697674
0.0697674
0.0697674
0.0697674
0.0697674
0.0697674
0.0697674
0.0697674
0.0697674
0.0697674
0.0697674
0.0697674
0.0697674
0.0697674
0.0697674
0.0697674
0.0697674
0.0697674
0.0697674
0.0697674
0.0697674
0.0697674
0.0697674
0.0697674
0.0697674
0.0697674
0.0697674
0.0697674
0.0697674
0.0697674
0.0697674
0.0697674
0.0697674
0.0697674
0.0697674
0.0697674
0.0697674
0.0697674
0.0697674
0.0697674
0.0697674
0.0697674
0.0697674
0.0697674
0.0697674
0.0697674
0.0697674
0.0697674
0.0697674
0.0697674
0.0697674
0.0697674
0.0697674
0.0697674
0.0697674
0.0697674
0.0697674
0.0697674
0.0697674
0.0697674
0.0697674
0.0697674
0.0697674
0.0697674
0.0697674
0.0697674
0.0697674
0.0697674
0.0697674
0.0697674
0.0697674
)
;
        value           nonuniform List<scalar> 
100
(
-0.814066
-0.815048
-0.816914
-0.819481
-0.822496
-0.825667
-0.828682
-0.831248
-0.833113
-0.834094
-0.814972
-0.815954
-0.81782
-0.820387
-0.823403
-0.826573
-0.829588
-0.832154
-0.834019
-0.835
-0.816695
-0.817677
-0.819543
-0.82211
-0.825125
-0.828295
-0.831311
-0.833877
-0.835742
-0.836723
-0.819065
-0.820046
-0.821912
-0.824479
-0.827495
-0.830665
-0.83368
-0.836247
-0.838112
-0.839093
-0.821849
-0.822831
-0.824696
-0.827263
-0.830279
-0.833449
-0.836464
-0.839031
-0.840896
-0.841878
-0.824776
-0.825757
-0.827623
-0.83019
-0.833205
-0.836376
-0.839391
-0.841958
-0.843823
-0.844804
-0.827559
-0.828541
-0.830407
-0.832974
-0.835989
-0.83916
-0.842175
-0.844741
-0.846607
-0.847588
-0.829928
-0.83091
-0.832776
-0.835343
-0.838358
-0.841529
-0.844544
-0.84711
-0.848976
-0.849957
-0.83165
-0.832632
-0.834498
-0.837065
-0.840081
-0.843251
-0.846267
-0.848833
-0.850698
-0.851679
-0.832556
-0.833537
-0.835404
-0.837971
-0.840987
-0.844157
-0.847172
-0.849739
-0.851604
-0.852585
)
;
    }
    adiabaticSide
    {
        type            fixedGradient;
        gradient        uniform 0;
    }
}


// ************************************************************************* //
