/*--------------------------------*- C++ -*----------------------------------*\
| =========                 |                                                 |
| \\      /  F ield         | OpenFOAM: The Open Source CFD Toolbox           |
|  \\    /   O peration     | Version:  v1912                                 |
|   \\  /    A nd           | Website:  www.openfoam.com                      |
|    \\/     M anipulation  |                                                 |
\*---------------------------------------------------------------------------*/
FoamFile
{
    version     2.0;
    format      ascii;
    class       volScalarField;
    location    "0.2";
    object      T;
}
// * * * * * * * * * * * * * * * * * * * * * * * * * * * * * * * * * * * * * //

dimensions      [0 0 0 1 0 0 0];


internalField   nonuniform List<scalar> 
8000
(
718.994401129
703.334678553
686.234004306
670.495781186
656.814101408
645.365614134
636.19547375
629.315231007
624.727840341
622.434054614
622.434054614
624.727840341
629.315231008
636.19547375
645.365614135
656.814101409
670.495781186
686.234004307
703.334678553
718.994401129
698.856685023
684.15141552
667.923732766
652.953774415
639.931653015
629.033052855
620.302883593
613.752633465
609.385240916
607.201454737
607.201454737
609.385240917
613.752633465
620.302883594
629.033052855
639.931653015
652.953774416
667.923732767
684.15141552
698.856685023
678.724964162
664.941190591
649.579548986
635.376130123
623.013127889
612.664302569
604.37407571
598.153810849
594.006414546
591.932627466
591.932627466
594.006414547
598.15381085
604.37407571
612.664302569
623.013127889
635.376130123
649.579548986
664.941190591
678.724964162
658.599145332
645.706352929
631.203912246
617.765327387
606.061009918
596.261848384
588.411535519
582.52124866
578.593846751
576.630058324
576.630058324
578.593846751
582.52124866
588.411535519
596.261848385
606.061009919
617.765327387
631.203912247
645.706352929
658.599145332
638.479088626
626.449069531
612.79914601
600.123719125
589.077659201
579.828052221
572.417625406
566.857309401
563.149900065
561.296109855
561.296109855
563.149900065
566.857309401
572.417625406
579.828052221
589.077659201
600.123719125
612.79914601
626.449069531
638.479088626
618.364614248
607.171343175
594.367450813
582.453544727
572.065324632
563.365165388
556.394597297
551.164245156
547.676826612
545.93303419
545.93303419
547.676826612
551.164245157
556.394597297
563.365165389
572.065324632
582.453544727
594.367450813
607.171343175
618.364614249
598.255508399
587.875028723
575.910916001
564.756941464
555.026155261
546.875339928
540.344603998
535.444208928
532.176779444
530.542984395
530.542984396
532.176779444
535.444208928
540.344603998
546.875339928
555.026155261
564.756941464
575.910916001
587.875028723
598.2555084
578.151528351
568.561847954
557.431530445
547.035954832
537.962210565
530.360638871
524.269709449
519.699264887
516.651822792
515.128024715
515.128024715
516.651822792
519.699264888
524.269709449
530.360638871
537.962210565
547.035954832
557.431530445
568.561847955
578.151528351
558.052406828
549.233403104
538.931192359
529.292547946
520.875469762
513.823045533
508.171898012
503.931397666
501.103941354
499.690139863
499.690139864
501.103941354
503.931397666
508.171898013
513.823045533
520.875469762
529.292547946
538.931192359
549.233403104
558.052406829
537.957855782
529.891189237
520.411718324
511.528610111
503.767840291
497.26447197
492.053082924
488.1425208
485.535048746
484.231243475
484.231243475
485.535048746
488.1425208
492.053082925
497.26447197
503.767840291
511.528610112
520.411718324
529.891189238
537.957855782
517.86756963
510.53660561
501.87485161
493.745964659
486.641165544
480.686766686
475.915113997
472.334484438
469.946995199
468.753185802
468.753185802
469.946995199
472.334484438
475.915113998
480.686766687
486.641165544
493.745964659
501.87485161
510.53660561
517.86756963
497.781228048
491.170966118
483.322269889
475.946376147
469.497231957
464.091721698
459.759784673
456.509082385
454.341574614
453.257760765
453.257760765
454.341574614
456.509082386
459.759784674
464.091721699
469.497231958
475.946376148
483.322269889
491.170966119
497.781228048
477.698498365
471.795508956
464.755592406
458.131557006
452.337775529
447.481079021
443.588838506
440.66805859
438.720531037
437.746712438
437.746712438
438.720531037
440.66805859
443.588838506
447.481079021
452.33777553
458.131557006
464.755592406
471.795508956
477.698498366
457.619037614
452.41140557
446.176386678
440.303173688
435.164487847
430.856536662
427.403975145
424.813113122
423.085564646
422.221741023
422.221741023
423.085564646
424.813113123
427.403975146
430.856536662
435.164487848
440.303173688
446.176386678
452.41140557
457.619037614
437.542494296
433.019769004
427.586174788
422.462852405
417.979021682
414.219754181
411.206855889
408.945907724
407.438337295
406.684508401
406.684508401
407.438337295
408.945907724
411.206855889
414.219754182
417.979021682
422.462852405
427.586174788
433.019769004
437.542494296
417.468509895
413.621661714
408.986439323
404.612184496
400.782996212
397.572357882
394.999108861
393.068070985
391.780477695
391.136643311
391.136643311
391.780477695
393.068070985
394.999108862
397.572357882
400.782996212
404.612184496
408.986439323
413.621661714
417.468509895
397.396720182
394.218102927
390.378629006
386.752731489
383.578001935
380.915945677
378.782333874
377.181203202
376.113586266
375.579746203
375.579746203
376.113586266
377.181203202
378.782333874
380.915945677
383.578001935
386.752731489
390.378629006
394.218102927
397.396720182
377.326756344
374.810075614
371.76416408
368.886029894
366.365605306
364.252091692
362.558107014
361.286880966
360.439239725
360.015393826
360.015393826
360.439239725
361.286880966
362.558107014
364.252091693
366.365605306
368.886029894
371.76416408
374.810075614
377.326756344
357.258245966
355.398533135
353.144441469
351.013595783
349.147353158
347.582350644
346.327985017
345.386661527
344.758995455
344.445143593
344.445143593
344.758995455
345.386661527
346.327985017
347.582350644
349.147353158
351.013595783
353.144441469
355.398533135
357.258245966
337.190813901
335.984405635
334.520839773
333.136929195
331.92477694
330.908262033
330.093509444
329.482086974
329.074395679
328.87053776
328.870537761
329.074395679
329.482086974
330.093509444
330.908262033
331.92477694
333.136929195
334.520839773
335.984405635
337.190813901
723.763020486
708.103297909
691.002623663
675.264400542
661.582720765
650.134233491
640.964093105
634.083850365
629.496459697
627.20267397
627.20267397
629.496459697
634.083850365
640.964093106
650.134233492
661.582720765
675.264400542
691.002623664
708.10329791
723.763020486
703.287266862
688.581997358
672.354314605
657.384356253
644.362234853
633.463634693
624.733465431
618.183215304
613.815822754
611.632036575
611.632036575
613.815822755
618.183215305
624.733465431
633.463634694
644.362234853
657.384356254
672.354314605
688.581997358
703.287266862
682.83723011
669.053456538
653.691814934
639.48839607
627.125393837
616.776568517
608.486341657
602.266076798
598.118680494
596.044893414
596.044893414
598.118680494
602.266076799
608.486341657
616.776568518
627.125393837
639.488396071
653.691814935
669.053456539
682.83723011
662.410804737
649.518012333
635.015571651
621.576986791
609.872669323
600.073507789
592.223194922
586.332908065
582.405506155
580.441717729
580.441717729
582.405506156
586.332908066
592.223194923
600.07350779
609.872669323
621.576986791
635.015571652
649.518012334
662.410804737
642.006040173
629.976021078
616.326097557
603.650670671
592.604610747
583.355003768
575.944576952
570.384260949
566.676851612
564.823061402
564.823061402
566.676851612
570.384260949
575.944576952
583.355003769
592.604610748
603.650670672
616.326097558
629.976021078
642.006040173
621.621123794
610.42785272
597.623960359
585.710054271
575.321834177
566.621674934
559.651106841
554.420754703
550.933336157
549.189543736
549.189543736
550.933336157
554.420754703
559.651106841
566.621674934
575.321834177
585.710054272
597.623960359
610.427852721
621.621123795
601.254365773
590.873886096
578.909773375
567.755798837
558.025012635
549.874197302
543.343461371
538.443066303
535.175636818
533.541841769
533.541841769
535.175636818
538.443066303
543.343461371
549.874197302
558.025012635
567.755798837
578.909773375
590.873886097
601.254365774
580.904185545
571.314505148
560.184187639
549.788612025
540.714867758
533.113296064
527.022366642
522.451922082
519.404479985
517.880681908
517.880681908
519.404479985
522.451922082
527.022366642
533.113296065
540.714867759
549.788612025
560.184187639
571.314505148
580.904185545
560.569099669
551.750095944
541.4478852
531.809240786
523.392162602
516.339738373
510.688590852
506.448090507
503.620634194
502.206832704
502.206832704
503.620634195
506.448090507
510.688590853
516.339738374
523.392162603
531.809240786
541.4478852
551.750095945
560.56909967
540.247710927
532.181044382
522.701573469
513.818465256
506.057695435
499.554327115
494.342938069
490.432375946
487.824903891
486.52109862
486.52109862
487.824903891
490.432375946
494.342938069
499.554327115
506.057695436
513.818465256
522.701573469
532.181044383
540.247710927
519.938698479
512.60773446
503.94598046
495.817093508
488.712294393
482.757895536
477.986242846
474.405613288
472.018124049
470.824314651
470.824314651
472.018124049
474.405613288
477.986242847
482.757895536
488.712294394
495.817093508
503.94598046
512.60773446
519.93869848
499.640808964
493.030547034
485.181850805
477.805957062
471.356812872
465.951302614
461.619365588
458.368663301
456.201155529
455.117341681
455.117341681
456.201155529
458.368663302
461.619365588
465.951302614
471.356812873
477.805957063
485.181850805
493.030547034
499.640808964
479.352848398
473.449858988
466.409942438
459.785907037
453.992125561
449.135429053
445.243188537
442.322408623
440.374881068
439.40106247
439.40106247
440.374881069
442.322408623
445.243188538
449.135429053
453.992125562
459.785907038
466.409942438
473.449858988
479.352848398
459.073674783
453.866042739
447.631023847
441.757810856
436.619125016
432.311173831
428.858612314
426.267750292
424.540201814
423.676378191
423.676378192
424.540201814
426.267750292
428.858612314
432.311173831
436.619125016
441.757810856
447.631023847
453.866042739
459.073674783
438.802191321
434.279466028
428.845871813
423.722549429
419.238718706
415.479451206
412.466552913
410.205604749
408.69803432
407.944205426
407.944205426
408.69803432
410.205604749
412.466552914
415.479451206
419.238718706
423.722549429
428.845871813
434.279466029
438.802191321
418.537340138
414.690491956
410.055269565
405.681014738
401.851826454
398.641188124
396.067939103
394.136901227
392.849307937
392.205473553
392.205473554
392.849307937
394.136901228
396.067939104
398.641188125
401.851826454
405.681014738
410.055269565
414.690491956
418.537340138
398.27809646
395.099479204
391.260005283
387.634107766
384.459378212
381.797321954
379.66371015
378.062579479
376.994962543
376.46112248
376.46112248
376.994962543
378.06257948
379.663710151
381.797321954
384.459378212
387.634107766
391.260005284
395.099479205
398.27809646
378.023463155
375.506782424
372.460870891
369.582736704
367.062312116
364.948798503
363.254813825
361.983587777
361.135946536
360.712100637
360.712100637
361.135946536
361.983587777
363.254813825
364.948798503
367.062312117
369.582736705
372.460870891
375.506782424
378.023463155
357.772465583
355.912752752
353.658661085
351.527815399
349.661572774
348.09657026
346.842204633
345.900881143
345.273215071
344.959363209
344.959363209
345.273215071
345.900881143
346.842204633
348.09657026
349.661572774
351.527815399
353.658661085
355.912752752
357.772465583
337.524146689
336.317738423
334.854172561
333.470261983
332.258109728
331.241594821
330.426842232
329.815419763
329.407728467
329.203870549
329.203870549
329.407728467
329.815419763
330.426842232
331.241594822
332.258109728
333.470261983
334.854172561
336.317738423
337.524146689
730.13766184
714.477939264
697.377265017
681.639041896
667.957362119
656.508874845
647.33873446
640.458491719
635.871101052
633.577315324
633.577315324
635.871101052
640.458491719
647.338734461
656.508874846
667.957362119
681.639041897
697.377265017
714.477939264
730.13766184
709.308516091
694.603246587
678.375563834
663.405605482
650.383484082
639.484883922
630.75471466
624.204464533
619.837071984
617.653285804
617.653285804
619.837071984
624.204464533
630.754714661
639.484883923
650.383484083
663.405605483
678.375563834
694.603246588
709.308516091
688.511616063
674.727842492
659.366200887
645.162782024
632.79977979
622.45095447
614.160727611
607.940462751
603.793066448
601.719279367
601.719279367
603.793066448
607.940462751
614.160727611
622.450954471
632.79977979
645.162782024
659.366200887
674.727842492
688.511616063
667.744712793
654.851920389
640.349479707
626.910894847
615.206577378
605.407415845
597.557102979
591.666816121
587.739414212
585.775625784
585.775625785
587.739414212
591.666816121
597.55710298
605.407415845
615.206577379
626.910894847
640.349479707
654.85192039
667.744712793
647.005660011
634.975640916
621.325717395
608.650290509
597.604230585
588.354623606
580.94419679
575.383880786
571.67647145
569.822681239
569.822681239
571.67647145
575.383880786
580.944196791
588.354623606
597.604230586
608.65029051
621.325717395
634.975640916
647.005660011
626.292407364
615.09913629
602.295243928
590.381337841
579.993117746
571.292958503
564.322390411
559.092038272
555.604619727
553.860827305
553.860827305
555.604619727
559.092038272
564.322390412
571.292958504
579.993117747
590.381337842
602.295243928
615.09913629
626.292407364
605.602993755
595.222514077
583.258401356
572.104426818
562.373640616
554.222825283
547.692089353
542.791694283
539.524264799
537.89046975
537.89046975
539.524264799
542.791694284
547.692089353
554.222825283
562.373640616
572.104426819
583.258401356
595.222514078
605.602993755
584.935540836
575.345860439
564.215542929
553.819967315
544.746223049
537.144651355
531.053721933
526.483277372
523.435835276
521.912037199
521.912037199
523.435835276
526.483277373
531.053721933
537.144651356
544.746223049
553.819967316
564.215542929
575.345860439
584.935540836
564.288246673
555.469242947
545.167032202
535.528387789
527.111309605
520.058885376
514.407737856
510.16723751
507.339781198
505.925979707
505.925979707
507.339781198
510.16723751
514.407737856
520.058885377
527.111309606
535.52838779
545.167032203
555.469242948
564.288246673
543.659379584
535.592713039
526.113242125
517.230133912
509.469364092
502.965995771
497.754606726
493.844044602
491.236572548
489.932767276
489.932767276
491.236572548
493.844044602
497.754606726
502.965995772
509.469364092
517.230133913
526.113242125
535.592713039
543.659379584
523.047272165
515.716308145
507.054554145
498.925667193
491.820868079
485.866469221
481.094816532
477.514186973
475.126697734
473.932888336
473.932888336
475.126697734
477.514186973
481.094816533
485.866469222
491.820868079
498.925667194
507.054554145
515.716308145
523.047272165
502.450315495
495.840053565
487.991357335
480.615463593
474.166319403
468.760809144
464.428872119
461.178169832
459.01066206
457.926848211
457.926848211
459.01066206
461.178169832
464.42887212
468.760809145
474.166319404
480.615463594
487.991357335
495.840053565
502.450315495
481.866953519
475.963964109
468.924047559
462.300012159
456.506230682
451.649534174
447.757293659
444.836513744
442.88898619
441.915167591
441.915167591
442.88898619
444.836513744
447.75729366
451.649534175
456.506230683
462.300012159
468.924047559
475.96396411
481.866953519
461.295677604
456.088045559
449.853026667
443.979813677
438.841127837
434.533176651
431.080615135
428.489753112
426.762204635
425.898381012
425.898381012
426.762204635
428.489753112
431.080615135
434.533176652
438.841127837
443.979813677
449.853026667
456.08804556
461.295677604
440.735021251
436.212295958
430.778701742
425.655379358
421.171548636
417.412281136
414.399382843
412.138434678
410.630864249
409.877035355
409.877035355
410.63086425
412.138434678
414.399382843
417.412281136
421.171548636
425.655379359
430.778701742
436.212295958
440.735021251
420.183554955
416.336706774
411.701484382
407.327229556
403.498041271
400.287402942
397.714153921
395.783116045
394.495522755
393.851688371
393.851688371
394.495522755
395.783116045
397.714153921
400.287402942
403.498041272
407.327229556
411.701484383
416.336706774
420.183554955
399.639881206
396.46126395
392.621790029
388.995892512
385.821162958
383.1591067
381.025494897
379.424364225
378.356747289
377.822907226
377.822907226
378.356747289
379.424364225
381.025494897
383.1591067
385.821162958
388.995892512
392.621790029
396.461263951
399.639881206
379.102629595
376.585948864
373.54003733
370.661903144
368.141478556
366.027964942
364.333980264
363.062754216
362.215112975
361.791267076
361.791267076
362.215112975
363.062754216
364.333980264
366.027964943
368.141478556
370.661903144
373.54003733
376.585948864
379.102629595
358.570452035
356.710739204
354.456647538
352.325801852
350.459559227
348.894556713
347.640191086
346.698867596
346.071201524
345.757349662
345.757349662
346.071201524
346.698867596
347.640191086
348.894556713
350.459559227
352.325801852
354.456647538
356.710739205
358.570452035
338.042018067
336.835609801
335.372043939
333.988133361
332.775981106
331.7594662
330.944713611
330.333291141
329.925599845
329.721741927
329.721741927
329.925599845
330.333291141
330.944713611
331.7594662
332.775981107
333.988133361
335.372043939
336.835609801
338.042018067
737.166791193
721.507068617
704.40639437
688.668171249
674.986491472
663.538004198
654.367863813
647.487621072
642.900230404
640.606444677
640.606444677
642.900230404
647.487621073
654.367863814
663.538004199
674.986491472
688.66817125
704.406394371
721.507068617
737.166791193
715.980278455
701.275008951
685.047326197
670.077367846
657.055246446
646.156646286
637.426477024
630.876226897
626.508834347
624.325048168
624.325048168
626.508834347
630.876226898
637.426477025
646.156646287
657.055246446
670.077367846
685.047326198
701.275008952
715.980278455
694.828627478
681.044853906
665.683212301
651.479793438
639.116791204
628.767965885
620.477739025
614.257474166
610.110077862
608.036290781
608.036290781
610.110077862
614.257474167
620.477739026
628.767965885
639.116791205
651.479793439
665.683212302
681.044853907
694.828627478
673.709555713
660.816763309
646.314322627
632.875737766
621.171420298
611.372258765
603.521945899
597.631659041
593.704257131
591.740468704
591.740468704
593.704257131
597.631659042
603.5219459
611.372258765
621.171420299
632.875737767
646.314322627
660.81676331
673.709555713
652.620867307
640.590848211
626.94092469
614.265497805
603.219437881
593.969830902
586.559404086
580.999088082
577.291678745
575.437888535
575.437888535
577.291678745
580.999088083
586.559404087
593.969830902
603.219437882
614.265497805
626.940924691
640.590848212
652.620867307
631.560447122
620.367176048
607.563283686
595.649377599
585.261157505
576.560998261
569.59043017
564.36007803
560.872659485
559.128867063
559.128867063
560.872659485
564.360078031
569.59043017
576.560998262
585.261157505
595.6493776
607.563283687
620.367176049
631.560447122
610.526254998
600.14577532
588.181662599
577.027688061
567.296901859
559.146086526
552.615350596
547.714955527
544.447526042
542.813730993
542.813730993
544.447526042
547.714955527
552.615350596
559.146086526
567.296901859
577.027688061
588.181662599
600.145775321
610.526254998
589.516320238
579.926639841
568.796322331
558.400746717
549.327002451
541.725430757
535.634501335
531.064056775
528.016614678
526.492816601
526.492816601
528.016614678
531.064056775
535.634501336
541.725430758
549.327002451
558.400746718
568.796322332
579.926639841
589.516320238
568.528736308
559.709732583
549.407521838
539.768877425
531.351799241
524.299375012
518.648227492
514.407727146
511.580270833
510.166469343
510.166469343
511.580270833
514.407727146
518.648227492
524.299375013
531.351799242
539.768877425
549.407521839
559.709732584
568.528736308
547.56165572
539.494989175
530.015518261
521.132410048
513.371640228
506.868271907
501.656882862
497.746320739
495.138848683
493.835043412
493.835043412
495.138848684
497.746320739
501.656882863
506.868271908
513.371640229
521.132410049
530.015518262
539.494989175
547.56165572
526.613285086
519.282321066
510.620567065
502.491680114
495.386880999
489.432482142
484.660829453
481.080199894
478.692710655
477.498901257
477.498901257
478.692710655
481.080199895
484.660829454
489.432482143
495.386881
502.491680114
510.620567066
519.282321066
526.613285086
505.681880337
499.071618407
491.222922178
483.847028435
477.397884246
471.992373987
467.660436962
464.409734675
462.242226902
461.158413054
461.158413054
462.242226902
464.409734675
467.660436962
471.992373987
477.397884246
483.847028436
491.222922178
499.071618407
505.681880337
484.765742081
478.862752671
471.822836121
465.198800721
459.405019245
454.548322736
450.656082221
447.735302306
445.787774752
444.813956153
444.813956153
445.787774752
447.735302306
450.656082222
454.548322737
459.405019245
465.198800721
471.822836121
478.862752672
484.765742081
463.863211088
458.655579044
452.420560152
446.547347161
441.408661321
437.100710136
433.648148619
431.057286597
429.329738119
428.465914496
428.465914496
429.329738119
431.057286597
433.64814862
437.100710136
441.408661321
446.547347161
452.420560152
458.655579044
463.863211088
442.972663899
438.449938606
433.01634439
427.893022007
423.409191284
419.649923784
416.637025492
414.376077327
412.868506897
412.114678003
412.114678003
412.868506898
414.376077327
416.637025492
419.649923784
423.409191284
427.893022007
433.016344391
438.449938606
442.972663899
422.092508529
418.245660348
413.610437957
409.23618313
405.406994846
402.196356516
399.623107496
397.692069619
396.404476329
395.760641945
395.760641945
396.404476329
397.692069619
399.623107496
402.196356517
405.406994846
409.23618313
413.610437957
418.245660348
422.09250853
401.221180275
398.042563019
394.203089098
390.577191581
387.402462027
384.740405769
382.606793966
381.005663294
379.938046358
379.404206295
379.404206295
379.938046358
381.005663295
382.606793966
384.74040577
387.402462027
390.577191581
394.203089099
398.04256302
401.221180275
380.357137585
377.840456854
374.79454532
371.916411134
369.395986546
367.282472933
365.588488255
364.317262207
363.469620965
363.045775066
363.045775066
363.469620965
364.317262207
365.588488255
367.282472933
369.395986546
371.916411134
374.79454532
377.840456854
380.357137585
359.498858012
357.639145181
355.385053514
353.254207828
351.387965203
349.822962689
348.568597062
347.627273572
346.9996075
346.685755638
346.685755638
346.9996075
347.627273572
348.568597062
349.822962689
351.387965203
353.254207828
355.385053514
357.639145181
359.498858012
338.644834213
337.438425946
335.974860085
334.590949506
333.378797252
332.362282345
331.547529756
330.936107286
330.528415991
330.324558072
330.324558072
330.528415991
330.936107286
331.547529756
332.362282345
333.378797252
334.590949506
335.974860085
337.438425947
338.644834213
744.471254991
728.811532415
711.710858168
695.972635047
682.290955269
670.842467997
661.672327611
654.79208487
650.204694202
647.910908474
647.910908475
650.204694203
654.792084871
661.672327612
670.842467997
682.29095527
695.972635048
711.710858169
728.811532415
744.471254991
722.925844199
708.220574695
691.992891941
677.02293359
664.000812189
653.102212031
644.372042768
637.821792641
633.454400091
631.270613911
631.270613911
633.454400092
637.821792642
644.372042769
653.102212031
664.00081219
677.022933591
691.992891942
708.220574695
722.925844199
701.416390895
687.632617323
672.270975719
658.067556855
645.704554621
635.355729302
627.065502443
620.845237583
616.697841279
614.624054198
614.624054198
616.697841279
620.845237584
627.065502443
635.355729303
645.704554622
658.067556856
672.270975719
687.632617324
701.416390895
679.940600142
667.047807739
652.545367056
639.106782196
627.402464728
617.603303195
609.752990329
603.862703471
599.935301561
597.971513133
597.971513133
599.935301561
603.862703472
609.752990329
617.603303196
627.402464729
639.106782197
652.545367057
667.047807739
679.940600143
658.496257627
646.466238532
632.816315011
620.140888125
609.094828201
599.845221222
592.434794406
586.874478403
583.167069066
581.313278855
581.313278855
583.167069066
586.874478403
592.434794407
599.845221223
609.094828202
620.140888126
632.816315011
646.466238532
658.496257628
637.081223818
625.887952744
613.084060382
601.170154295
590.7819342
582.081774957
575.111206865
569.880854726
566.393436181
564.649643758
564.649643758
566.393436181
569.880854727
575.111206866
582.081774958
590.781934201
601.170154296
613.084060382
625.887952744
637.081223818
615.693428409
605.312948731
593.348836009
582.194861472
572.464075269
564.313259937
557.782524007
552.882128938
549.614699453
547.980904403
547.980904404
549.614699453
552.882128938
557.782524007
564.313259938
572.46407527
582.194861473
593.34883601
605.312948732
615.693428409
594.330865025
584.741184628
573.610867118
563.215291504
554.141547237
546.539975544
540.449046122
535.878601562
532.831159465
531.307361387
531.307361387
532.831159465
535.878601562
540.449046123
546.539975545
554.141547238
563.215291505
573.610867118
584.741184628
594.330865025
572.991586166
564.172582441
553.870371696
544.231727282
535.814649098
528.76222487
523.111077349
518.870577004
516.043120691
514.6293192
514.6293192
516.043120691
518.870577004
523.11107735
528.762224871
535.814649099
544.231727283
553.870371696
564.172582441
572.991586166
551.673698367
543.607031822
534.127560908
525.244452695
517.483682875
510.980314555
505.768925509
501.858363386
499.250891331
497.947086059
497.947086059
499.250891331
501.858363386
505.76892551
510.980314555
517.483682876
525.244452696
534.127560909
543.607031823
551.673698367
530.375357553
523.044393533
514.382639533
506.253752582
499.148953467
493.19455461
488.422901921
484.842272362
482.454783122
481.260973724
481.260973724
482.454783123
484.842272362
488.422901921
493.19455461
499.148953467
506.253752582
514.382639533
523.044393534
530.375357554
509.094764574
502.484502644
494.635806415
487.259912673
480.810768483
475.405258224
471.073321199
467.822618912
465.655111139
464.57129729
464.57129729
465.655111139
467.822618912
471.073321199
475.405258225
480.810768483
487.259912673
494.635806415
502.484502645
509.094764575
487.830160896
481.927171486
474.887254935
468.263219535
462.469438059
457.612741551
453.720501036
450.799721121
448.852193566
447.878374967
447.878374967
448.852193566
450.799721121
453.720501036
457.612741551
462.469438059
468.263219536
474.887254936
481.927171486
487.830160896
466.579824434
461.372192389
455.137173497
449.263960507
444.125274666
439.817323481
436.364761965
433.773899942
432.046351465
431.182527841
431.182527841
432.046351465
433.773899943
436.364761965
439.817323482
444.125274667
449.263960507
455.137173497
461.37219239
466.579824434
445.34206552
440.819340227
435.385746011
430.262423627
425.778592904
422.019325405
419.006427112
416.745478947
415.237908518
414.484079624
414.484079624
415.237908518
416.745478948
419.006427113
422.019325405
425.778592905
430.262423628
435.385746011
440.819340227
445.34206552
424.115222969
420.268374788
415.633152397
411.25889757
407.429709286
404.219070956
401.645821935
399.714784059
398.427190769
397.783356385
397.783356385
398.427190769
399.714784059
401.645821936
404.219070957
407.429709286
411.25889757
415.633152397
420.268374788
424.11522297
402.897660259
399.719043003
395.879569082
392.253671565
389.078942011
386.416885753
384.28327395
382.682143278
381.614526341
381.080686279
381.080686279
381.614526342
382.682143278
384.28327395
386.416885754
389.078942011
392.253671565
395.879569082
399.719043004
402.897660259
381.687761775
379.171081044
376.125169511
373.247035324
370.726610737
368.613097123
366.919112445
365.647886397
364.800245156
364.376399257
364.376399257
364.800245156
365.647886397
366.919112445
368.613097124
370.726610737
373.247035325
376.125169511
379.171081045
381.687761775
360.483929146
358.624216315
356.370124648
354.239278962
352.373036337
350.808033823
349.553668196
348.612344706
347.984678634
347.670826772
347.670826772
347.984678634
348.612344706
349.553668196
350.808033823
352.373036337
354.239278962
356.370124648
358.624216315
360.483929146
339.28457762
338.078169354
336.614603492
335.230692913
334.018540659
333.002025752
332.187273163
331.575850693
331.168159398
330.964301479
330.964301479
331.168159398
331.575850693
332.187273163
333.002025752
334.018540659
335.230692913
336.614603492
338.078169354
339.28457762
751.892373014
736.232650438
719.131976191
703.39375307
689.712073293
678.263586019
669.093445634
662.213202892
657.625812225
655.332026497
655.332026497
657.625812225
662.213202893
669.093445635
678.26358602
689.712073294
703.393753071
719.131976192
736.232650438
751.892373015
729.987428589
715.282159085
699.054476331
684.08451798
671.06239658
660.16379642
651.433627158
644.88337703
640.51598448
638.332198301
638.332198301
640.515984481
644.883377031
651.433627159
660.163796421
671.06239658
684.084517981
699.054476332
715.282159086
729.987428589
708.118905468
694.335131897
678.973490292
664.770071428
652.407069194
642.058243875
633.768017015
627.547752156
623.400355851
621.32656877
621.32656877
623.400355852
627.547752156
633.768017016
642.058243875
652.407069195
664.770071429
678.973490293
694.335131897
708.118905468
686.284503629
673.391711226
658.889270543
645.450685683
633.746368215
623.947206681
616.096893815
610.206606957
606.279205047
604.31541662
604.31541662
606.279205047
610.206606957
616.096893816
623.947206682
633.746368215
645.450685684
658.889270544
673.391711226
686.284503629
664.482001167
652.451982072
638.802058551
626.126631665
615.080571741
605.830964762
598.420537946
592.860221942
589.152812605
587.299022394
587.299022394
589.152812605
592.860221943
598.420537947