/*--------------------------------*- C++ -*----------------------------------*\
| =========                 |                                                 |
| \\      /  F ield         | OpenFOAM: The Open Source CFD Toolbox           |
|  \\    /   O peration     | Version:  v1912                                 |
|   \\  /    A nd           | Website:  www.openfoam.com                      |
|    \\/     M anipulation  |                                                 |
\*---------------------------------------------------------------------------*/
FoamFile
{
    version     2.0;
    format      ascii;
    class       volScalarField;
    location    "0";
    object      differenceBetweenBasis;
}
// * * * * * * * * * * * * * * * * * * * * * * * * * * * * * * * * * * * * * //

dimensions      [0 0 0 1 0 0 0];


internalField   nonuniform List<scalar> 
1000
(
-2.02454e-05
3.626e-05
-7.19803e-06
-2.75658e-05
2.39721e-05
-1.92348e-05
-1.16981e-06
-4.63957e-05
-1.19347e-05
8.83641e-06
-1.79664e-07
-1.8063e-05
2.32401e-05
-1.6461e-07
2.94543e-05
-3.86793e-05
3.22104e-05
-3.32058e-05
2.50729e-05
1.68415e-05
-4.67188e-05
-1.21679e-05
4.50194e-05
1.11887e-05
-1.72733e-05
-3.21991e-05
-1.78444e-05
-4.97083e-05
3.25907e-05
2.5328e-05
-5.65264e-06
-3.65422e-06
-1.08011e-05
-4.24097e-05
-2.55526e-05
1.03078e-05
-4.25294e-05
1.15062e-05
3.13383e-05
3.34904e-05
2.34098e-05
6.44468e-06
-4.48639e-05
-4.00435e-05
-3.93376e-05
-3.46326e-05
-3.95469e-05
-4.87526e-05
-3.73317e-07
-2.23111e-07
2.40505e-05
7.35976e-06
2.50876e-05
3.19187e-05
1.50654e-05
9.80258e-06
-4.47969e-05
2.78772e-05
1.59691e-05
-3.10522e-05
3.63791e-05
-2.97742e-05
4.99423e-06
3.04946e-05
-3.4387e-05
1.6669e-05
4.11769e-05
1.24319e-05
-5.55959e-06
2.00987e-05
2.1328e-05
3.96324e-05
3.56952e-06
3.16184e-05
1.57856e-05
-3.06068e-05
3.45008e-06
1.25976e-05
-4.18783e-05
2.71092e-05
-2.16277e-05
-4.54709e-05
3.05564e-05
-2.88698e-05
-6.56148e-06
4.12264e-05
-7.20361e-06
-1.91555e-05
4.51011e-06
1.01944e-05
9.27197e-06
2.01082e-05
4.45934e-05
-1.80269e-05
4.5303e-07
-3.39564e-05
4.31738e-06
-2.62236e-05
3.04071e-05
-3.88556e-05
2.23158e-05
-2.69808e-05
2.17461e-05
-7.74032e-06
3.37791e-05
-1.95302e-05
-1.02387e-05
3.90413e-05
-2.67286e-05
-9.52232e-07
-1.56915e-05
-3.74678e-05
-3.39301e-06
-3.71404e-05
-2.05832e-05
-3.62723e-06
-4.80489e-05
-2.72083e-05
2.10728e-05
8.12874e-06
3.11252e-05
-3.74228e-05
1.36371e-05
-2.92282e-05
3.07421e-05
2.49344e-06
3.00455e-06
-4.15882e-05
3.09225e-05
1.83893e-05
4.35261e-06
3.90588e-06
-8.09718e-06
-4.684e-05
-3.905e-05
-1.35473e-05
2.29303e-05
-3.28168e-05
-2.05225e-05
-2.24815e-05
-3.12032e-05
4.99719e-05
-5.0072e-06
-5.52512e-06
-1.15247e-05
-1.43888e-05
-2.70232e-05
-4.32261e-05
-1.9831e-07
-2.95735e-06
2.90532e-05
1.09903e-05
2.60291e-05
2.89893e-05
7.33041e-06
-3.29196e-06
3.67056e-05
4.53471e-06
-1.10466e-05
3.99465e-05
2.99121e-05
-3.72365e-05
-4.40635e-06
1.83288e-05
-4.99498e-05
-2.64075e-06
1.81304e-05
-1.39327e-05
-3.44194e-05
-1.01026e-05
3.09282e-05
4.85097e-05
1.10462e-05
3.7112e-05
1.88649e-05
-3.0165e-05
1.28626e-06
8.13999e-06
-4.80488e-05
2.0022e-05
2.83602e-05
3.97616e-06
-2.10402e-05
1.80646e-05
3.85973e-05
-1.55395e-05
3.41435e-05
2.05421e-05
4.29828e-05
4.8014e-05
2.06946e-05
3.10963e-05
-4.52551e-05
-9.04881e-06
8.01915e-06
-2.79136e-05
8.87385e-06
-2.29609e-05
3.27125e-05
-3.70595e-05
3.46534e-05
-2.24582e-05
9.34257e-06
-4.7048e-05
-4.20362e-05
-3.95232e-05
2.15477e-05
2.39273e-05
1.95306e-05
2.27759e-05
5.74917e-06
-2.32555e-05
-4.37319e-06
3.82669e-05
2.3293e-05
2.58477e-06
1.7566e-05
-5.21024e-07
1.62498e-05
-1.47077e-05
-4.88938e-05
-2.35692e-05
1.49443e-05
-4.69569e-05
-1.1906e-05
3.05876e-05
8.5e-08
2.62774e-05
-2.44074e-05
-4.99509e-05
2.35878e-05
1.82849e-05
-3.47771e-06
4.32701e-05
3.24227e-05
3.64236e-05
-4.95063e-05
-2.60007e-05
-2.98992e-05
-4.08075e-05
3.71965e-05
1.47011e-05
-4.7558e-05
4.12754e-05
2.18228e-05
3.68713e-06
-2.46132e-05
4.48995e-05
-2.3064e-05
-3.18303e-05
1.15161e-05
-9.23569e-06
5.21124e-07
-4.1459e-06
-3.53058e-05
4.34391e-05
-2.73194e-05
3.08308e-05
7.88789e-06
-4.51086e-05
-9.56364e-06
2.13495e-05
-4.96e-05
-3.22667e-05
-7.19517e-06
3.27629e-05
4.61869e-05
7.58617e-06
-1.7826e-05
3.83899e-06
2.65309e-05
4.27118e-05
2.53247e-06
2.47489e-05
1.80937e-06
4.76459e-05
-2.59814e-05
-2.36045e-05
1.68599e-05
-1.68616e-05
7.82961e-06
-1.75981e-05
-4.46297e-05
-8.36302e-06
8.73639e-06
-4.91256e-05
-3.09787e-06
-1.98975e-05
1.6679e-07
3.93045e-06
2.55447e-05
3.51098e-05
-4.2853e-05
-8.9075e-06
5.43823e-06
-3.34333e-05
4.85159e-07
-3.38484e-05
1.99752e-05
4.92189e-05
1.54795e-05
4.92493e-05
-4.58541e-05
4.93999e-05
-1.54949e-05
-1.37586e-06
-4.09598e-05
-4.18127e-05
-3.81702e-05
4.05451e-06
-1.80667e-05
4.25859e-05
3.78557e-05
4.18266e-05
-2.65682e-05
-1.27875e-05
2.97485e-05
4.00617e-05
-3.46856e-06
2.92578e-05
1.86378e-05
3.49279e-05
-4.55945e-05
-3.70882e-05
-4.15243e-05
-4.61553e-05
-2.74193e-05
-4.99032e-05
-4.00441e-05
1.17786e-05
6.99888e-06
-5.43826e-06
-4.17103e-05
-1.68031e-05
4.39756e-05
1.48977e-05
-5.86256e-06
-1.49587e-05
-4.45931e-05
3.01244e-05
-3.26193e-05
3.9547e-05
-3.33608e-05
3.97885e-05
3.81976e-07
-4.05608e-05
7.5831e-06
-4.45299e-05
-2.92434e-05
-4.72142e-05
1.01304e-05
-1.44923e-05
-1.23628e-05
-2.80887e-05
2.69137e-05
-9.89798e-06
3.53448e-06
4.73959e-05
1.35417e-05
-4.5386e-05
-3.71268e-05
-8.97881e-06
1.46698e-05
2.42633e-05
3.9779e-05
-3.08586e-05
-2.80571e-05
2.38625e-05
-8.70958e-06
9.09374e-06
-3.92515e-05
-2.50537e-05
3.09176e-05
4.76693e-05
1.80553e-05
-4.34249e-05
-2.43053e-05
-2.83342e-05
7.33375e-06
-2.89595e-05
-2.36896e-05
4.94137e-05
1.9544e-05
-4.81908e-05
-3.59379e-05
9.34502e-07
4.17887e-05
2.04567e-05
3.71499e-05
3.91142e-05
-1.14033e-05
-3.01156e-06
1.67648e-05
4.7536e-05
-4.19438e-05
1.50511e-05
4.49301e-05
7.07532e-06
-4.17096e-05
-1.38546e-05
1.52146e-05
3.89658e-05
7.35487e-06
3.27022e-05
-3.63498e-05
4.34181e-05
4.8114e-05
-1.56086e-05
3.93685e-05
-2.02e-05
2.72139e-05
-2.51952e-05
3.85435e-05
-1.09066e-05
4.52779e-05
-3.49588e-05
2.02983e-06
6.32703e-06
-2.81662e-05
4.86319e-05
1.8223e-05
2.29454e-05
1.75036e-05
-1.34771e-05
2.85962e-05
-4.06861e-05
7.57173e-06
1.6664e-05
-2.9671e-05
-1.0494e-05
3.08263e-05
9.32207e-06
-4.55874e-05
-4.90542e-05
-2.55215e-05
1.56569e-06
3.42281e-05
-1.88626e-05
1.64622e-05
-2.85417e-05
4.30308e-05
8.49154e-06
2.21307e-05
-2.46739e-05
1.03521e-05
3.99834e-05
-4.24694e-05
-2.28559e-05
-2.96009e-05
4.02642e-05
2.33742e-05
-6.05416e-06
-1.34256e-05
-4.29892e-05
-5.38609e-06
3.81441e-05
3.15023e-05
-4.28642e-05
9.30529e-06
4.27576e-05
-3.79704e-05
-1.32194e-05
3.77936e-06
3.81707e-06
7.49545e-06
2.36864e-05
1.32375e-05
-4.67061e-05
1.17368e-05
2.46847e-05
-3.69184e-05
-2.51348e-05
2.6144e-05
3.62212e-05
-1.56291e-06
2.79789e-05
3.81772e-05
2.62517e-05
-4.40041e-05
1.65226e-05
-2.50365e-05
4.62912e-05
1.29881e-05
4.04068e-05
4.67808e-05
-2.27443e-05
1.18139e-05
-1.50418e-05
-2.46218e-06
-2.69549e-06
-4.07808e-05
-3.38011e-05
-1.67469e-05
1.01987e-05
1.61039e-05
-3.18939e-05
-6.89937e-06
-4.90164e-05
-9.61611e-07
2.52101e-05
-2.56401e-07
1.33924e-05
3.76037e-05
-2.54428e-05
-2.8846e-05
-2.46067e-05
-2.5594e-05
-6.90728e-06
4.68486e-05
4.73995e-05
4.58936e-05
-2.14259e-05
4.64868e-06
-1.03124e-05
-4.81454e-05
-4.70053e-05
-4.46234e-05
2.29814e-05
-3.0185e-05
-2.72379e-05
-8.50837e-06
-1.71088e-05
4.81916e-05
-2.99137e-05
4.75084e-05
-7.35936e-07
-3.93862e-05
-1.54778e-05
-3.24482e-05
4.53323e-05
-2.34433e-05
4.46948e-05
-3.17164e-05
3.1738e-05
1.14358e-05
-1.35074e-05
-3.65744e-05
-4.27151e-05
-4.99574e-05
-1.90654e-05
-1.49188e-05
4.29729e-05
4.13404e-05
-2.82713e-05
-2.26713e-05
-2.71316e-05
-4.52576e-05
4.11916e-05
8.46196e-06
-3.60797e-05
7.73451e-06
-2.70534e-05
-4.50575e-05
9.82223e-06
2.77672e-05
4.89768e-05
1.94315e-05
2.41735e-05
-3.97392e-05
-1.50803e-05
-2.59615e-05
-4.95752e-06
4.69026e-06
-5.86772e-06
-1.53608e-05
-1.38789e-05
-3.91779e-05
-1.24608e-05
3.58506e-05
4.33129e-05
4.28013e-05
-4.80527e-05
-1.90744e-06
8.53048e-07
-4.59091e-05
-2.62583e-05
-2.59133e-05
-4.65809e-05
-2.34075e-05
3.35872e-05
2.99149e-05
-6.82089e-07
-3.77104e-05
-1.55572e-05
-1.55808e-05
7.92007e-06
3.56029e-05
2.70557e-06
1.078e-05
8.13787e-06
-2.53377e-05
-1.98813e-05
-5.7658e-06
1.70462e-05
1.79587e-05
-3.54468e-05
-1.57495e-05
3.75057e-05
-1.78739e-05
6.46741e-06
-3.39942e-05
-2.91188e-05
4.68718e-05
-1.68296e-05
2.40471e-05
2.26031e-05
-2.16331e-05
3.72372e-05
4.80462e-05
-2.24857e-05
3.24449e-05
4.98141e-05
3.52916e-05
4.78852e-05
4.5049e-06
-2.89618e-05
1.92338e-05
2.87548e-05
3.69122e-05
-4.73682e-05
3.38936e-05
1.14495e-05
4.57362e-05
1.68695e-05
2.38134e-05
-1.1339e-05
-4.64772e-05
-1.79629e-05
-1.47303e-05
1.59069e-05
3.06898e-05
-1.18574e-05
-1.0676e-05
1.79481e-05
-4.89316e-05
-2.96041e-05
-1.28082e-05
2.33899e-05
-3.04398e-05
-2.60804e-05
-4.4889e-05
5.28257e-06
-1.20157e-05
-5.18326e-06
-3.01799e-05
2.96866e-05
-2.59931e-05
2.53426e-05
-3.50425e-05
5.02082e-06
-1.67679e-05
4.30413e-05
1.42811e-05
-4.66482e-05
-4.87775e-05
4.95286e-05
-3.62821e-06
-2.0518e-05
-1.14655e-06
1.43471e-05
-3.74156e-05
-2.01483e-05
-1.78476e-05
-3.90281e-05
3.82284e-05
2.48601e-05
-1.54835e-05
-2.32422e-06
3.56616e-05
3.75223e-05
-4.97599e-06
1.56446e-06
4.26311e-05
3.81385e-05
-1.75448e-05
-7.74741e-06
-1.72428e-05
-4.66612e-05
-3.00775e-05
2.33702e-05
-4.21704e-05
2.53457e-05
-1.53379e-05
1.64168e-06
-4.67784e-06
1.19476e-05
3.28408e-05
-6.03244e-06
-2.4199e-06
-7.44977e-06
-3.49213e-05
-3.09512e-05
-1.97048e-05
-9.32274e-07
-4.90424e-06
3.6393e-05
-4.91052e-05
-3.94035e-07
4.08512e-05
-3.66076e-05
2.19738e-05
2.1355e-05
-4.95547e-05
-1.64886e-05
-3.84816e-05
4.24838e-05
3.84311e-05
1.68516e-05
-3.80267e-05
1.21757e-06
-3.33824e-05
-2.97564e-05
1.67934e-05
-4.22128e-05
8.39093e-06
3.82319e-05
2.83436e-05
-2.5873e-05
3.69555e-05
-3.99366e-05
3.39202e-06
-3.17809e-05
-2.6709e-05
-4.25198e-06
3.4268e-05
1.39317e-05
-1.66005e-05
1.67634e-05
3.965e-05
2.23811e-05
-2.54924e-07
4.74152e-05
2.78492e-05
2.38716e-05
1.29974e-05
-2.07252e-05
3.84096e-05
1.89228e-05
1.97821e-05
-1.82433e-06
-2.87309e-05
1.44434e-05
-1.71393e-05
-3.19325e-05
1.47974e-05
4.14995e-05
-4.92936e-05
-3.09722e-05
-1.74943e-05
7.95957e-06
4.76894e-05
2.6535e-06
-3.57856e-05
-1.10036e-05
-3.13608e-05
4.60537e-05
-2.87348e-05
3.4475e-05
3.84117e-05
4.54194e-05
-1.92241e-05
-5.27495e-06
-9.51194e-06
-4.01721e-05
2.52213e-05
-1.48631e-06
4.46122e-05
4.55166e-05
-2.58552e-05
-2.90802e-05
1.03403e-05
1.45869e-05
-4.88232e-05
4.02784e-05
-2.33016e-05
-2.22463e-05
-4.04924e-05
2.22909e-05
3.29915e-05
-1.67312e-05
-2.62153e-05
3.96512e-05
-4.23054e-06
8.21673e-06
-3.62653e-06
6.9573e-06
2.18746e-05
-2.22659e-05
-2.25908e-05
-2.97295e-05
-3.979e-05
-3.71136e-05
-2.8366e-05
-1.31147e-05
-2.13489e-05
1.53205e-05
2.52783e-05
-2.99887e-05
8.29891e-06
2.9262e-05
1.22305e-05
1.13808e-05
1.84432e-06
4.29496e-05
-2.77088e-05
-4.79646e-05
5.03581e-06
1.7769e-05
6.61287e-06
-4.24754e-05
5.03379e-06
-1.33786e-06
1.37016e-05
-5.60554e-06
-4.59648e-05
-3.47971e-05
1.66385e-05
1.7093e-05
4.90072e-05
-1.28691e-05
4.84847e-05
3.52347e-06
-1.46002e-05
-3.15992e-05
-4.92733e-05
-4.02449e-05
4.94258e-05
2.44379e-06
-4.32515e-05
-1.89063e-06
4.59593e-05
-1.39084e-05
-4.96672e-05
2.06192e-05
-2.52957e-05
-1.58536e-06
1.0962e-05
4.61643e-05
9.87823e-06
-3.31641e-05
3.93567e-05
-2.28204e-05
3.46056e-05
3.06234e-06
2.77607e-05
2.84782e-05
1.00296e-05
2.21405e-06
-5.10422e-06
8.67624e-06
5.16474e-07
-4.81926e-05
6.00668e-06
1.98773e-05
-1.44562e-05
4.68762e-05
-4.46282e-05
3.14691e-06
-4.92797e-06
-4.54149e-06
-1.14597e-05
-5.74371e-09
-9.16823e-06
-4.69883e-05
9.42004e-06
-2.7419e-05
8.35391e-06
-9.93606e-08
2.13674e-05
1.4244e-05
-1.247e-05
-9.93625e-06
2.33069e-05
7.61195e-06
3.81082e-05
3.25928e-05
7.75683e-06
-3.53429e-05
-2.90874e-05
1.87921e-05
8.92463e-07
-3.44659e-05
1.92759e-05
2.83521e-05
1.23952e-05
1.84739e-05
2.89292e-05
-1.91487e-05
-2.242e-05
-3.11377e-05
-2.79435e-06
-1.07534e-06
5.82241e-06
1.84653e-05
7.07077e-06
4.03059e-05
4.68884e-05
-1.13362e-05
2.47513e-05
4.45399e-05
1.90573e-05
2.32129e-05
-8.85459e-06
-2.87699e-05
-1.2216e-06
3.86421e-05
2.05596e-05
4.3069e-05
4.35804e-05
4.97159e-05
-8.26044e-07
-1.19104e-05
-1.48843e-05
2.94923e-05
3.32049e-05
-2.94784e-05
3.47296e-05
4.25724e-05
-1.04975e-05
-2.90501e-05
-1.54849e-05
3.42834e-05
3.14936e-06
-3.64834e-05
1.31968e-05
-1.91714e-05
2.3356e-05
2.84678e-05
4.14024e-05
-4.25495e-05
-4.38818e-05
-7.86056e-06
4.74313e-05
3.34361e-06
3.77072e-05
3.73135e-05
2.33282e-05
3.25646e-05
-2.51572e-05
1.93401e-05
1.85903e-06
3.67727e-05
-1.18086e-05
4.74437e-05
-4.0022e-05
4.62887e-05
1.24451e-05
-9.97999e-06
-2.89716e-05
-2.17686e-05
-2.48114e-05
2.44939e-05
-2.52964e-05
-1.73569e-05
4.06895e-05
-6.77144e-06
-7.44115e-06
3.18479e-05
1.71519e-05
1.38809e-05
-2.61151e-05
-1.60027e-05
-2.7817e-05
3.05013e-05
-1.79458e-05
3.97296e-05
-3.00991e-05
-4.3638e-05
-2.60698e-05
-3.5318e-05
4.78133e-05
4.94304e-05
-1.91189e-05
-3.73855e-05
-1.00694e-05
-1.91168e-05
-4.74997e-05
6.2302e-06
1.00878e-05
-4.33273e-05
-1.95921e-05
4.43964e-05
-3.12935e-06
4.14737e-06
-1.4007e-05
-1.03372e-05
-2.26956e-06
4.75437e-05
4.26934e-05
3.3129e-05
2.85293e-05
2.97391e-05
3.56525e-05
4.69067e-05
3.38289e-05
-3.47664e-05
-2.99839e-05
1.02133e-05
4.51263e-05
-3.57123e-05
)
;

boundaryField
{
    hotSide
    {
        type            calculated;
        value           nonuniform List<scalar> 
100
(
-2.02616e-05
2.23295e-05
3.46671e-05
1.54633e-05
1.51924e-05
-2.72411e-07
-3.40045e-05
2.1967e-05
1.22187e-05
1.90346e-05
3.62738e-05
-2.69807e-05
-2.24581e-05
4.9263e-05
3.89724e-05
1.33892e-05
-2.91355e-05
2.13302e-05
1.13803e-05
2.32023e-05
-7.18432e-06
2.17462e-05
9.34263e-06
-4.58403e-05
7.36142e-06
3.76006e-05
4.68551e-05
-4.95795e-05
1.84381e-06
-8.86528e-06
-2.7582e-05
-7.72661e-06
-4.70342e-05
4.93837e-05
3.26801e-05
-2.54588e-05
-1.68398e-05
-1.64954e-05
4.29377e-05
-2.87926e-05
2.39499e-05
3.37856e-05
-4.20296e-05
-1.55171e-05
-3.6353e-05
-2.88621e-05
2.40393e-05
-3.84978e-05
-2.76893e-05
-1.19889e-06
-1.92508e-05
-1.95334e-05
-3.95264e-05
-1.39187e-06
4.3402e-05
-2.46113e-05
2.25963e-05
4.24833e-05
-4.79541e-05
3.86287e-05
-1.18005e-06
-1.02553e-05
2.1531e-05
-4.097e-05
4.81063e-05
-2.56009e-05
-2.16216e-05
3.84182e-05
5.05851e-06
2.05406e-05
-4.64025e-05
3.90165e-05
2.39025e-05
-4.18195e-05
-1.56248e-05
-6.9078e-06
3.72243e-05
1.68616e-05
1.77604e-05
4.30664e-05
-1.19465e-05
-2.67292e-05
1.95301e-05
-3.81821e-05
3.9388e-05
4.68592e-05
4.80689e-05
-3.80353e-05
6.61776e-06
4.35911e-05
8.81372e-06
-9.62923e-07
2.27652e-05
4.03181e-06
-2.01773e-05
4.73862e-05
-2.25047e-05
1.21493e-06
-4.24647e-05
4.97122e-05
)
;
    }
    coldSide
    {
        type            calculated;
        value           nonuniform List<scalar> 
100
(
8.65255e-06
1.95313e-05
2.41504e-05
-1.10382e-05
-3.90169e-05
-2.43091e-05
-3.34365e-05
-3.80733e-05
-2.83939e-06
2.69926e-05
1.90224e-05
2.94872e-05
3.33095e-05
-2.99654e-06
-3.23199e-05
-1.9063e-05
-2.96059e-05
-3.54748e-05
-1.15267e-06
2.81944e-05
4.23908e-05
-4.31793e-05
-4.08916e-05
1.58873e-05
-1.60287e-05
-5.57052e-06
-1.88458e-05
-2.70946e-05
5.4658e-06
3.38754e-05
-1.71988e-05
-8.64821e-06
-8.51365e-06
4.5242e-05
9.68271e-06
1.62041e-05
-9.18323e-07
-1.25206e-05
1.75555e-05
4.46425e-05
4.49833e-07
7.65565e-06
5.19761e-06
-3.99281e-05
1.53553e-05
1.71218e-05
-4.65248e-06
-2.03141e-05
6.75224e-06
3.22361e-05
-3.22725e-05
-2.65175e-05
-3.17743e-05
1.44013e-05
-3.03082e-05
-3.3692e-05
3.47268e-05
1.46578e-05
3.84533e-05
-3.30441e-05
4.22743e-06
8.56692e-06
5.77666e-07
4.29061e-05
-6.45528e-06
-1.4884e-05
-4.66514e-05
2.419e-05
4.47711e-05
-2.84407e-05
-2.48104e-05
-2.1703e-05
-3.20721e-05
6.90285e-06
-4.65179e-05
3.58841e-05
-2.10919e-07
-2.83964e-05
-1.06321e-05
9.89129e-06
2.91728e-05
3.13684e-05
1.92376e-05
-3.95099e-05
-7.0223e-07
-1.68092e-05
3.91194e-05
8.11723e-06
2.37861e-05
4.31909e-05
-3.67421e-05
-3.50315e-05
4.71383e-05
-1.29317e-05
2.42728e-05
6.42256e-06
-3.46013e-05
2.81317e-05
4.2682e-05
-3.37487e-05
)
;
    }
    gammaEx1
    {
        type            calculated;
        value           nonuniform List<scalar> 
100
(
1.90573e-05
-8.26044e-07
-1.54849e-05
-4.38818e-05
1.85903e-06
-2.48114e-05
-2.61151e-05
4.78133e-05
-1.95921e-05
2.85293e-05
2.32129e-05
-1.19104e-05
3.42834e-05
-7.86056e-06
3.67727e-05
2.44939e-05
-1.60027e-05
4.94304e-05
4.43964e-05
2.97391e-05
-8.85459e-06
-1.48843e-05
3.14936e-06
4.74313e-05
-1.18086e-05
-2.52964e-05
-2.7817e-05
-1.91189e-05
-3.12935e-06
3.56525e-05
-2.87699e-05
2.94923e-05
-3.64834e-05
3.34361e-06
4.74437e-05
-1.73569e-05
3.05013e-05
-3.73855e-05
4.14737e-06
4.69067e-05
-1.2216e-06
3.32049e-05
1.31968e-05
3.77072e-05
-4.0022e-05
4.06895e-05
-1.79458e-05
-1.00694e-05
-1.4007e-05
3.38289e-05
3.86421e-05
-2.94784e-05
-1.91714e-05
3.73135e-05
4.62887e-05
-6.77144e-06
3.97296e-05
-1.91168e-05
-1.03372e-05
-3.47664e-05
2.05596e-05
3.47296e-05
2.3356e-05
2.33282e-05
1.24451e-05
-7.44115e-06
-3.00991e-05
-4.74997e-05
-2.26956e-06
-2.99839e-05
4.3069e-05
4.25724e-05
2.84678e-05
3.25646e-05
-9.97999e-06
3.18479e-05
-4.3638e-05
6.2302e-06
4.75437e-05
1.02133e-05
4.35804e-05
-1.04975e-05
4.14024e-05
-2.51572e-05
-2.89716e-05
1.71519e-05
-2.60698e-05
1.00878e-05
4.26934e-05
4.51263e-05
4.97159e-05
-2.90501e-05
-4.25495e-05
1.93401e-05
-2.17686e-05
1.38809e-05
-3.5318e-05
-4.33273e-05
3.3129e-05
-3.57123e-05
)
;
    }
    gammaEx2
    {
        type            calculated;
        value           nonuniform List<scalar> 
100
(
8.83641e-06
1.68415e-05
2.5328e-05
3.34904e-05
-2.23111e-07
-3.10522e-05
2.00987e-05
2.71092e-05
1.01944e-05
-3.88556e-05
-9.52232e-07
8.12874e-06
1.83893e-05
-2.24815e-05
-2.95735e-06
3.99465e-05
-1.01026e-05
2.0022e-05
4.8014e-05
-3.70595e-05
2.27759e-05
-1.47077e-05
-4.99509e-05
-4.08075e-05
-3.18303e-05
-4.51086e-05
3.83899e-06
-1.68616e-05
3.93045e-06
4.92189e-05
4.05451e-06
2.92578e-05
1.17786e-05
3.01244e-05
-4.72142e-05
-4.5386e-05
9.09374e-06
-2.89595e-05
3.91142e-05
-1.38546e-05
-2.02e-05
4.86319e-05
-1.0494e-05
-2.85417e-05
4.02642e-05
4.27576e-05
2.46847e-05
1.65226e-05
-2.69549e-06
2.52101e-05
4.73995e-05
-2.72379e-05
4.53323e-05
-1.90654e-05
-3.60797e-05
-1.50803e-05
4.33129e-05
3.35872e-05
8.13787e-06
6.46741e-06
-2.24857e-05
-4.73682e-05
1.59069e-05
-2.60804e-05
5.02082e-06
1.43471e-05
3.75223e-05
2.33702e-05
-7.44977e-06
-3.66076e-05
1.21757e-06
-3.99366e-05
2.23811e-05
-1.82433e-06
7.95957e-06
4.54194e-05
-2.90802e-05
-1.67312e-05
-2.97295e-05
2.9262e-05
-4.24754e-05
-1.28691e-05
-1.89063e-06
-3.31641e-05
8.67624e-06
-4.54149e-06
1.4244e-05
1.87921e-05
-3.11377e-05
4.45399e-05
4.97159e-05
-2.90501e-05
-4.25495e-05
1.93401e-05
-2.17686e-05
1.38809e-05
-3.5318e-05
-4.33273e-05
3.3129e-05
-3.57123e-05
)
;
    }
    gammaEx3
    {
        type            calculated;
        value           nonuniform List<scalar> 
100
(
-2.02454e-05
-1.79664e-07
-4.67188e-05
-5.65264e-06
2.34098e-05
2.40505e-05
3.63791e-05
2.1328e-05
-2.16277e-05
9.27197e-06
3.626e-05
-1.8063e-05
-1.21679e-05
-3.65422e-06
6.44468e-06
7.35976e-06
-2.97742e-05
3.96324e-05
-4.54709e-05
2.01082e-05
-7.19803e-06
2.32401e-05
4.50194e-05
-1.08011e-05
-4.48639e-05
2.50876e-05
4.99423e-06
3.56952e-06
3.05564e-05
4.45934e-05
-2.75658e-05
-1.6461e-07
1.11887e-05
-4.24097e-05
-4.00435e-05
3.19187e-05
3.04946e-05
3.16184e-05
-2.88698e-05
-1.80269e-05
2.39721e-05
2.94543e-05
-1.72733e-05
-2.55526e-05
-3.93376e-05
1.50654e-05
-3.4387e-05
1.57856e-05
-6.56148e-06
4.5303e-07
-1.92348e-05
-3.86793e-05
-3.21991e-05
1.03078e-05
-3.46326e-05
9.80258e-06
1.6669e-05
-3.06068e-05
4.12264e-05
-3.39564e-05
-1.16981e-06
3.22104e-05
-1.78444e-05
-4.25294e-05
-3.95469e-05
-4.47969e-05
4.11769e-05
3.45008e-06
-7.20361e-06
4.31738e-06
-4.63957e-05
-3.32058e-05
-4.97083e-05
1.15062e-05
-4.87526e-05
2.78772e-05
1.24319e-05
1.25976e-05
-1.91555e-05
-2.62236e-05
-1.19347e-05
2.50729e-05
3.25907e-05
3.13383e-05
-3.73317e-07
1.59691e-05
-5.55959e-06
-4.18783e-05
4.51011e-06
3.04071e-05
8.83641e-06
1.68415e-05
2.5328e-05
3.34904e-05
-2.23111e-07
-3.10522e-05
2.00987e-05
2.71092e-05
1.01944e-05
-3.88556e-05
)
;
    }
    gammaEx4
    {
        type            calculated;
        value           nonuniform List<scalar> 
100
(
-2.02454e-05
-1.79664e-07
-4.67188e-05
-5.65264e-06
2.34098e-05
2.40505e-05
3.63791e-05
2.1328e-05
-2.16277e-05
9.27197e-06
2.23158e-05
-1.56915e-05
3.11252e-05
4.35261e-06
-3.12032e-05
2.90532e-05
2.99121e-05
3.09282e-05
2.83602e-05
2.06946e-05
3.46534e-05
5.74917e-06
-4.88938e-05
2.35878e-05
3.71965e-05
1.15161e-05
-9.56364e-06
2.65309e-05
7.82961e-06
2.55447e-05
1.54795e-05
-1.80667e-05
1.86378e-05
6.99888e-06
-3.26193e-05
1.01304e-05
-3.71268e-05
-3.92515e-05
-2.36896e-05
-1.14033e-05
1.52146e-05
2.72139e-05
1.8223e-05
3.08263e-05
4.30308e-05
2.33742e-05
-3.79704e-05
-3.69184e-05
-2.50365e-05
-4.07808e-05
-2.56401e-07
4.58936e-05
-8.50837e-06
-2.34433e-05
-1.49188e-05
7.73451e-06
-2.59615e-05
4.28013e-05
2.99149e-05
-2.53377e-05
-3.39942e-05
3.24449e-05
3.38936e-05
3.06898e-05
-4.4889e-05
-1.67679e-05
-3.74156e-05
-4.97599e-06
-4.21704e-05
-3.49213e-05
2.19738e-05
-3.33824e-05
3.39202e-06
-2.54924e-07
-2.87309e-05
4.76894e-05
-1.92241e-05
1.03403e-05
-2.62153e-05
-3.979e-05
1.22305e-05
5.03379e-06
4.84847e-05
4.59593e-05
3.93567e-05
5.16474e-07
-1.14597e-05
-1.247e-05
8.92463e-07
-2.79435e-06
1.90573e-05
-8.26044e-07
-1.54849e-05
-4.38818e-05
1.85903e-06
-2.48114e-05
-2.61151e-05
4.78133e-05
-1.95921e-05
2.85293e-05
)
;
    }
}

