/*--------------------------------*- C++ -*----------------------------------*\
| =========                 |                                                 |
| \\      /  F ield         | OpenFOAM: The Open Source CFD Toolbox           |
|  \\    /   O peration     | Version:  v2012                                 |
|   \\  /    A nd           | Website:  www.openfoam.com                      |
|    \\/     M anipulation  |                                                 |
\*---------------------------------------------------------------------------*/
FoamFile
{
    version     2.0;
    format      ascii;
    class       volScalarField;
    location    "0.2";
    object      T;
}
// * * * * * * * * * * * * * * * * * * * * * * * * * * * * * * * * * * * * * //

dimensions      [0 0 0 1 0 0 0];


internalField   nonuniform List<scalar> 
32000
(
927.7908457823086
925.0409479975198
921.5928494169864
918.1289976134767
914.9555187978619
912.2182227291443
909.9876418435289
908.2980456366317
907.1661064137952
906.5999385564454
906.6034917938928
907.1786887522317
908.3264653225104
910.0472770691678
912.3413457311899
915.208779204014
918.6496299190122
922.6639232148102
927.2516710456407
932.4128784525176
938.1475462884125
944.4556716807978
951.337246477343
958.7922528332776
966.8206535592989
975.422371995165
984.5972505324213
994.3449653322044
1004.664851102419
1015.555541113462
1027.014227674738
1039.035142899714
1051.60643759637
1064.703768618233
1078.277119048461
1092.223680399181
1106.33185536215
1120.1642146593
1132.802379659069
1142.199007641978
897.8098773249189
895.2869625702353
892.0520395139771
888.7776264483546
885.7676895351494
883.1671881420685
881.0462645614967
879.4390016315456
878.3619812648935
877.8232739102515
877.8268079214382
878.3744955208706
879.4672675355018
881.1055770647695
883.2896446478334
886.0195775963482
889.2954280579581
893.1172212342176
897.48496901463
902.3986764129818
907.8583442776077
913.8639697515067
920.4155447265068
927.5130514543312
935.1564529469586
943.3456729589037
952.0805547345504
961.360776187252
971.1856756247684
981.5538937127153
992.4626379528572
1003.90617166975
1015.872709797873
1028.338040988905
1041.252419504012
1054.513596827813
1067.911146083566
1081.010189167031
1092.898827593996
1101.559506486563
867.8076331868804
865.4935923977745
862.4651196828656
859.3771056935194
856.5292610890405
854.0648529486751
852.0532458447638
850.5281503726303
849.505968157678
848.9946820222046
848.9981776849107
849.5183466171652
850.5561095451557
852.1119146516334
854.185980082628
856.7784119853535
859.8892619415656
863.51855487938
867.6663025592497
872.3325099405912
877.5171778625188
883.220303499018
889.4418788299382
896.1818862995461
903.4402893212255
911.2170124768124
919.5119007117069
928.3246354342596
937.6545621324184
947.5003362222578
957.8591955080146
968.7254655674822
980.0874892405492
991.9213180581406
1004.177747143278
1016.755644708934
1029.446917038506
1041.821762893133
1052.981050296071
1060.96010729188
837.7861859649474
835.665023052793
832.8364517727142
829.9318397530561
827.2446547865069
824.9156462531361
823.0130185199293
821.5699264893578
820.6025025978839
820.1185988243927
820.1220372239081
820.6146782817226
821.5974276412446
823.070726143464
825.0347883609217
827.4897187020354
830.435567903576
833.8723604853315
837.8001080150754
842.2188153710124
847.1284833785035
852.5291092578087
858.4206851201914
864.8031936974618
871.6765990023653
879.0408268521469
886.8957247321941
895.2409792697293
904.0759466743671
913.3993043880624
923.2083354636491
933.497458437295
944.2552071399933
955.4580256329184
967.0575166059508
978.954215350631
990.9435087664102
1002.603148711965
1013.052731810428
1020.398155175374
807.7473437720566
805.804921191416
803.1699376698781
800.4457929419895
797.9178601195632
795.7235691495193
793.9295892379913
792.568339324614
791.6555952368313
791.1990356047717
791.2023981362468
791.6675022631862
792.5952336458294
793.9860233980593
795.8400813579004
798.1575096300303
800.9383578317093
804.1826499417164
807.8903972725651
812.0616045948425
816.6962727156936
821.7943989166984
827.3559754832085
833.3809855280268
839.8693938579725
846.8211279271015
854.2360385860202
862.1138193764509
870.453840713147
879.2548092201741
888.5140679002239
898.2261584497415
908.3798677414535
918.9521598828173
929.8957073908256
941.1132534455393
952.4047904289343
963.3580284991885
973.1168483220376
979.871050692439
777.6927038130368
775.9165229475162
773.469093187168
770.9225620199371
768.5525070421605
766.4922669433829
764.8066106641348
763.5270451096779
762.6689040392845
762.2396511715783
762.2429196406979
762.6804779801591
763.5531870747856
764.8614659786376
766.6055186598199
768.7854443667879
771.4012913288245
774.4530828539492
777.9408299382077
781.8645372187515
786.2242054801478
791.0198320800031
796.251409519498
801.9189213838083
808.0223334642478
814.5615752442235
821.5365017465886
828.9468150857754
836.7919032882875
845.0705091586244
853.7800500261676
862.9152202828312
872.4651205224785
882.4073595871156
892.6959361982927
903.236329639226
913.8342330886521
924.0896304769506
933.1757890162344
939.376266241269
747.6236945950133
746.0027061249134
743.7371086508682
741.3654352683369
739.1519247483124
737.2250878313957
735.6474401153737
734.4494055822421
733.6457928920537
733.2438104573597
733.2469671787921
733.6569711219248
734.474653737994
735.7004197537817
737.3344661638233
739.3768888233345
741.8277343126547
744.6870251429267
747.9547719342341
751.6309791651972
755.715647593562
760.2087746672607
765.1103531438749
770.4203671697758
776.1387837058652
782.2655346464668
788.8004799711248
795.7433319788101
803.0934996190915
810.8497686794493
819.0096447905611
827.568003748436
836.5143188475927
845.8269648482918
855.4615157698012
865.3266996651719
875.2349697413224
884.8007937755456
893.2314554559141
898.9113554946921
717.5416092843072
716.0660494149739
713.9768988962705
711.7774409107337
709.7191897410504
707.9251308500179
706.4551874573998
705.3385358589927
704.5893794648849
704.214632374196
704.217660267289
704.6001014995804
705.3627535898246
706.5060047475949
708.0300439279491
709.9349630741957
712.2208068656947
714.887596894904
717.9353433484835
721.3640505222883
725.1737191431415
729.3643467631124
733.9359264353672
738.8884429532618
744.2218646260504
749.9361261274868
756.0310931514402
762.5064897381376
769.3617489583116
776.5957061523867
784.2059687491023
792.1876216752463
800.5305678863067
809.2140650828755
818.195503034184
827.3873528519265
836.6098448770269
845.494022720297
853.2853435346254
858.473957771119
687.4476321519376
686.1088811911814
684.1911447959849
682.1613870646202
680.2571653906485
678.5952852933005
677.2327544611277
676.1973437633444
675.5025745243266
675.1550291208391
675.1579118020411
675.5127823483018
676.220400030625
677.2811344408231
678.6951654720598
680.4625806582441
682.5834225360039
685.0577116622754
687.8854577351772
691.0666648445541
694.6013336823743
698.4894619180909
702.7310429380403
707.3260622648463
712.2744897275904
717.5762631329272
723.2312546157664
729.2392014507757
735.5995638974355
742.3112331509451
749.3719313839925
756.7769792488543
764.5167639948072
772.5715384895556
780.9007387595415
789.4210521962522
797.9614557341928
806.1715328149833
813.3386112587573
818.0617987695557
657.342859612673
656.133319905235
654.3823279925593
652.5198949414319
650.768534707977
649.2382633274274
647.9828673470056
647.0285623366048
646.3881144289076
646.0677386701307
646.0704605416404
646.3977528091592
647.0503323876438
648.0285482513317
649.3325702581158
650.9624810588691
652.9183208173257
655.2001089436698
657.8078545950053
660.7415616330335
664.001230711125
667.5868596287283
671.4984421411345
675.7359645785709
680.2993984531965
685.1886850410892
690.4037036100606
695.9442060907936
701.8096828519857
707.9990869432071
714.5102676060602
721.3388065371499
728.475627289314
735.9020847219796
743.5798804367245
751.4303677230639
759.2921869394268
766.8352899795389
773.3921349757129
777.6726887265962
627.2283170263989
626.141307697259
624.5527601564347
622.8554266459838
621.2558276926924
619.8566271634674
618.7081038790968
617.8347768947522
617.2485881679145
616.9553517990331
616.9578981331955
617.2576049528213
617.8551429377258
618.7508385563185
619.944850712146
621.4372567258273
623.2280941708847
625.3173812057216
627.7051263968823
630.391333357027
633.3760026973947
636.6591323593362
640.2407165008859
644.1207423338404
648.2991832075803
652.7759841853564
657.5510323211454
662.6240955439225
667.9946970891493
673.6618575256688
679.6235648013587
685.8756855631524
692.409728772929
699.2082521274973
706.2354297541026
713.4177044864917
720.6042398623382
727.4870442804504
733.4465561610347
737.3045187770616
597.1049721717837
596.1346385097662
594.7046078183731
593.1703086433313
591.7214443315326
590.4528118654225
589.4109160865523
588.6184477086902
588.0864600217056
587.8203347392688
587.8226917582637
588.0948064231964
588.6372995498361
589.4504733342949
590.5344748659619
591.8893757168332
593.515210666912
595.4119965245695
597.5797412194368
600.018448095585
602.7281177188144
605.7087481835193
608.9603340820821
612.4828635770701
616.276311999286
620.3406284964093
624.6757085197204
629.2813372521937
634.157073375764
639.3020102781077
644.7142855001616
650.3900730030437
656.3215130934612
662.4924606286586
668.8697557387846
675.3853262818518
681.8996577331917
688.1283591451052
693.5023204773663
696.9552560920546
566.9737461026039
566.1149817413831
564.8399136139668
563.4667517408635
562.1676741007337
561.0291446493217
560.0936494688125
559.3819291645372
558.9040887002702
558.6650483053074
558.667203255691
558.9117195577714
559.3991648041858
560.1298152836119
561.1038054754024
562.3212008156603
563.7820331026827
565.486317703856
567.4340618689969
569.6252686554909
572.0599385806361
574.7380699021842
577.6596576761253
580.8246910798464
584.2331475590553
587.8849806210179
591.780094680016
595.9182933353713
600.2991731034067
604.9219050961675
609.7847865249712
614.884319365879
620.2133177883612
625.7570211028873
631.485114417951
637.3353759169477
643.1803473532553
648.7606368593744
653.5597104996879
656.6229382120147
536.8355219430147
536.0839022766422
534.9606146130008
533.7468682620502
532.5967126540324
531.5878613564931
530.7585593682927
530.127486087969
529.7037436441235
529.4917641838736
529.4937054055849
529.7106176688848
530.1430122721877
530.7911381017839
531.6551162993397
532.7350058109988
534.0308352812954
535.5426185534808
537.2703621583271
539.2140688499935
541.373739094475
543.7493713223104
546.3409610798464
549.1484986178522
552.1719636189777
555.4113142016381
558.8664642603259
562.5372368734041
566.4232685747836
570.5238126858503
574.8373353016419
579.3606853388839
584.0873897003236
589.0041519430918
594.083665681258
599.2698927186533
604.4480980586006
609.3851409982844
613.6188732472684
616.3056668750791
506.6911520589043
506.042877570694
505.0685582777297
504.0126869546282
503.0106762430494
502.1311206493917
501.4078250595144
500.8573077818587
500.4876190369615
500.3026789344412
500.3043959238869
500.4936990354193
500.8710405067485
501.4366404750946
502.1906060889569
503.1329894855692
504.2638160007111
505.5830978785948
507.0908408956122
508.787047487791
510.671718067302
512.7448512459652
515.0064430845798
517.4564849600504
520.094958901902
522.9218278663207
525.9370156939081
529.140365899377
532.5315570008834
536.1099285693081
539.8741238829189
543.8213558474715
547.9458991122931
552.2359933471633
556.6674878903912
561.1908278161561
565.7045984667676
570.0030163229235
573.6798434598778
576.001601553241
476.5414639503927
475.993312343515
475.1655164934808
474.2661660718114
473.4116143116098
472.661016372974
472.043561998335
471.5735202211451
471.2578459740986
471.0999261448108
471.1014096116898
471.2630990490773
471.5853851870606
472.0684582226687
472.7124107314681
473.5172877596733
474.4831111972227
475.6098916230349
476.8976340278683
478.3463405164379
479.9560114448587
481.7266456137449
483.6582396196612
485.7507860123076
488.0042692653208
490.418657373094
492.9938845344303
495.7298155471111
498.626172653034
501.6823852460367
504.8972811284076
508.2684522737803
511.7909520452842
515.4546197788725
519.2385906764198
523.1000576371325
526.9514514335959
530.6153065854775
533.7425633936415
535.708952843053
446.3872651392988
445.9365513401186
445.2531980362983
444.5092049837281
443.8015206233065
443.1795884422659
442.6678325925307
442.2781967664831
442.0165031484089
441.8855871035687
441.8868290211395
442.0209008770789
442.2881297797469
442.6886749568588
443.2226139101348
443.889984351032
444.6908046052028
445.6250835290313
446.6928253006389
447.8940316820371
449.2287029713606
450.6968381645074
452.2984344122223
454.0334854773136
455.9019783615401
457.9038862706826
460.0391541177861
462.3076687152637
464.7091975316633
467.2432628712226
469.9088834026161
472.7040431951811
475.6246010800054
478.662050960293
481.7989262831652
484.9993959711027
488.1901875682175
491.2229706128206
493.8068997823398
495.4259758087019
416.2293472704559
415.8738905360273
415.3332597808601
414.743654612978
414.1823432174672
413.6888325525016
413.2826557907466
412.973367694
412.7656263512446
412.6617002869593
412.6626939354637
412.7691449388697
412.9813150139458
413.2993315575423
413.7232565781827
414.2531202485134
414.8889372307445
415.6307146108039
416.4784557315692
417.4321620028159
418.4918336630805
419.6574699089833
420.9290684608632
422.3066243283874
423.7901271117657
425.3795553731489
427.0748650378928
428.8759655454849
430.7826708493172
432.7945987487481
434.9109640884702
437.1301539399195
439.4488549990304
441.860261691545
444.3503997505173
446.8906048902383
449.4222775926162
451.8268969831748
453.8726585067263
455.1509633388676
386.0684896035
385.8065871066848
385.4073169040863
384.9713269390371
384.5559934388604
384.190708958243
383.8900157368489
383.661028788516
383.507217035833
383.4302699077592
383.4310099107767
383.5098374444801
383.6669474179963
383.9024347079911
384.2163454942708
384.608702247411
385.0795158868461
385.6287916897031
386.256532145533
386.9627383042427
387.7474103434806
388.6105476649392
389.552148570882
390.5722093448406
391.6707222417464
392.8476712961194
394.103023684106
395.4367119622812
396.8485975755515
398.3383958864082
399.9055221637442
401.5487752071197
403.2656874962585
405.0511907436697
406.894878181598
408.7754047682844
410.6491437846651
412.4279175667389
413.9395974325655
414.882239551891
355.9054620395179
355.7358684324089
355.4769523029425
355.1940037784485
354.9243542480631
354.6871505293978
354.4918696982255
354.3431492090825
354.2432501521816
354.1932737352525
354.1937560887878
354.2449582036969
354.3470071268871
354.49996470148
354.7038610286952
354.9587107554498
355.2645209993194
355.6212952000761
356.0290349804735
356.4877410248702
356.9974134490632
357.5580518630569
358.1696551602236
358.8322209180702
359.5457440881565
360.3102142637591
361.1256100494206
361.9918874837313
362.9089562528131
363.8766308224087
364.8945300493626
365.9618709598686
367.077045161909
368.2367490318945
369.4341992991958
370.6554836000371
371.8721707070569
373.0268201674736
374.0074378138778
374.6181532641158
929.633323450988
926.8834256663522
923.435327085678
919.9714752823462
916.797996466655
914.06070039804
911.8301195124229
910.1405233055543
909.0085840827511
908.4424162253665
908.4459694628383
909.0211664210706
910.1689429914675
911.8897547380564
914.1838234002105
917.051256872788
920.4921075879996
924.5064008835755
929.0941487147828
934.2553561213456
939.9900239572286
946.2981493499888
953.1797241460665
960.634730502317
968.6631312280144
977.2648496642141
986.4397282012596
996.1874430012268
1006.507328771232
1017.398018782455
1028.856705343622
1040.877620568737
1053.448915265259
1066.546246287234
1080.119596717292
1094.066158068109
1108.174333030899
1122.006692328134
1134.644857327801
1144.041485310853
899.4840511397605
896.9611363852406
893.7262133288319
890.4518002633962
887.4418633501145
884.8413619571389
882.7204383765653
881.113175446643
880.0361550800247
879.497447725346
879.5009817365594
880.0486693358775
881.1414413506361
882.7797508798291
884.9638184630334
887.6937514112892
890.9696018731247
894.7913950491434
899.1591428299579
904.0728502279827
909.5325180925875
915.5381435668886
922.0897185413916
929.1872252695489
936.8306267618369
945.0198467741341
953.7547285495573
963.0349500024532
972.8598494397481
983.2280675278847
994.13681176791
1005.580345484951
1017.546883612933
1030.012214804081
1042.926593319012
1056.187770642916
1069.58531989848
1082.684362982034
1094.57300140889
1103.23368030161
869.3319988906933
867.0179581017604
863.9894853866897
860.9014713975307
858.053626792981
855.5892186527201
853.5776115488079
852.0525160767049
851.0303338617828
850.5190477262754
850.5225433890085
851.0427123211451
852.0804752492672
853.6362803556659
855.7103457868064
858.3027776892649
861.4136276457102
865.0429205832747
869.1906682635588
873.8568756445686
879.0415435664664
884.7446692033851
890.9662445337927
897.7062520037423
904.9646550250741
912.7413781810225
921.0362664156855
929.8490011384373
939.1789278363703
949.0247019264045
959.3835612120398
970.2498312716588
981.6118549445841
993.4456837622934
1005.702112847251
1018.280010413012
1030.971282742391
1043.346128597111
1054.50541599993
1062.484472995895
839.1760235675767
837.0548606556009
834.2262893753511
831.3216773558734
828.6344923892636
826.3054838559943
824.4028561227883
822.9597640922491
821.9923402008001
821.5084364272768
821.5118748268219
822.0045158845151
822.9872652441712
824.4605637463094
826.4246259639148
828.8795563047591
831.8254055065356
835.2621980880351
839.1899456181999
843.6086529738083
848.5183209812603
853.9189468609947
859.8105227228579
866.1930313004714
873.0664366050253
880.4306644551714
888.285562334987
896.6308168727214
905.4657842771329
914.7891419910241
924.5981730664873
934.8872960402861
945.6450447428427
956.8478632358848
968.4473542087375
980.3440529535238
992.3333463691042
1003.992986314761
1014.442569413098
1021.787992778196
809.0153354816931
807.0729129012338
804.4379293795211
801.7137846517966
799.1858518293238
796.9915608593781
795.1975809478505
793.8363310345104
792.9235869467452
792.4670273146556
792.4703898461627
792.9354939729801
793.8632253557577
795.2540151079046
797.1080730678933
799.4255013397545
802.2063495416693
805.4506416514205
809.1583889826881
813.3295963046429
817.9642644254486
823.0623906268854
828.623967192877
834.6489772380344
841.137385567635
848.0891196371252
855.5040302958155
863.3818110864429
871.7218324229157
880.5228009301383
889.7820596100621
899.4941501597312
909.6478594513036
920.2201515927824
931.1636991006141
942.3812451554325
953.6727821386274
964.6260202089919
974.3848400317072
981.1390424022555
778.8494222485512
777.0732413832129
774.6258116226932
772.0792804556033
769.7092254777971
767.6489853791101
765.9633290998648
764.6837635454486
763.8256224750669
763.3963696073318
763.3996380764863
763.8371964158248
764.7099055105846
766.0181844143541
767.762237095681
769.9421628023865
772.5580097646548
775.6098012895255
779.0975483741975
783.0212556544291
787.3809239157727
792.1765505160581
797.4081279550418
803.0756398196841
809.1790518997841
815.7182936801153
822.6932201822564
830.1035335216355
837.9486217239297
846.2272275944587
854.9367684618754
864.0719387186884
873.6218389582014
883.5640780229478
893.8526546339536
904.3930480749899
914.9909515242141
925.2463489126329
934.3325074517769
940.5329846769564
748.6779897806164
747.0570013106948
744.7914038364928
742.4197304540742
740.2062199340369
738.2793830172025
736.7017353011837
735.503700768099
734.7000880779141
734.2981056431938
734.3012623646626
734.7112663076755
735.5289489238737
736.7547149395793
738.3887613497633
740.431184009018
742.8820294985644
745.7413203285877
749.0090671202987
752.685274350963
756.7699427792683
761.2630698533912
766.1646483295062
771.4746623557272
777.1930788914896
783.3198298324359
789.8547751568761
796.7976271647493
804.1477948048199
811.9040638653643
820.0639399763495
828.6222989343707
837.5686140334
846.8812600342004
856.5158109555459
866.3809948510152
876.2892649269654
885.8550889613177
894.285750641543
899.9656506804652
718.500916416974
717.0253565478104
714.9362060289727
712.7367480435177
710.6784968738399
708.8844379828785
707.4144945902638
706.2978429919107
705.5486865977986
705.1739395070854
705.1769674002162
705.5594086323898
706.3220607227594
707.4653118804503
708.9893510609418
710.8942702069411
713.1801139986582
715.8469040276258
718.8946504815957
722.3233576551156
726.1330262759052
730.3236538962897
734.8952335680632
739.847750086264
745.1811717587384
750.8954332605069
756.9904002842511
763.4657968711294
770.3210560911011
777.5550132853565
785.1652758819481
793.1469288082321
801.4898750191725
810.1733722158344
819.1548101669873
828.3466599848257
837.5691520097262
846.4533298531336
854.2446506673173
859.4332649039555
688.3182171460132
686.9794661854129
685.0617297901108
683.0319720587961
681.1277503848488
679.4658702875589
678.1033394553882
677.0679287576687
676.3731595186373
676.0256141151269
676.0284967963686
676.3833673425152
677.0909850249587
678.1517194350787
679.5657504664478
681.3331656523958
683.4540075303643
685.9282966564033
688.7560427296804
691.9372498387887
695.4719186765409
699.3600469126583
703.6016279321473
708.1966472592422
713.1450747216873
718.4468481273414
724.1018396099814
730.1097864451631
736.4701488916315
743.1818181453148
750.2425163782393
757.6475642432353
765.3873489890776
773.4421234839093
781.771323753749
790.2916371905532
798.8320407282948
807.0421178092286
814.2091962528577
818.932383763801
658.1300155996983
656.920475892402
655.1694839796473
653.3070509285423
651.5556906951304
650.0254193146245
648.7700233342041
647.8157183238745
647.175270416158
646.8548946573572
646.8576165289082
647.1849087963185
647.8374883749174
648.8157042385305
650.1197262454406
651.7496370459696
653.705476804624
655.9872649307457
658.595010582438
661.5287176202157
664.7883866982372
668.3740156162238
672.2855981281938
676.5231205659011
681.0865544402442
685.9758410284383
691.1908595972216
696.7313620781174
702.5968388391308
708.7862429305162
715.2974235932485
722.1259625244667
729.2627832765306
736.6892407092681
744.3670364238774
752.2175237103086
760.0793429264729
767.6224459667322
774.1792909627646
778.4598447137911
627.936522045136
626.8495127161261
625.2609651752434
623.5636316647932
621.9640327115629
620.5648321823667
619.4163088979959
618.5429819137298
617.956793186866
617.6635568179616
617.6661031521678
617.9658099716895
618.5633479567007
619.4590435752227
620.6530557311696
622.1454617446394
623.9362991898835
626.025586224511
628.4133314160072
631.0995383759202
634.0842077162162
637.3673373785218
640.9489215196611
644.8289473528669
649.007388226344
653.4841892044018
658.2592373400155
663.3323005629454
668.7029021080058
674.3700625446805
680.3317698202538
686.5838905821669
693.1179337918552
699.9164571464831
706.9436347729639
714.1259095054428
721.312444881092
728.1952492993531
734.1547611797993
738.0127237959664
597.7380160141771
596.7676823522829
595.3376516608455
593.8033524857868
592.3544881740675
591.0858557079712
590.0439599290968
589.251491551321
588.7195038643066
588.4533785818463
588.4557356008839
588.7278502657205
589.2703433924594
590.0835171768508
591.1675187086292
592.522419559304
594.148254509557
596.045040367018
598.212785062197
600.6514919381352
603.3611615612914
606.3417920263372
609.593377924519
613.115907419739
616.909355841711
620.9736723390967
625.3087523622463
629.9143810948601
634.7901172182782
639.9350541207654
645.347329342707
651.0231168457012
656.954556936042
663.1255044712875
669.5027995812999
676.0183701244561
682.5327015756011
688.761402987661
694.1353643197882
697.5882999346112
567.5348325269759
566.6760681658739
565.4010000384191
564.0278381652869
562.7287605252529
561.5902310738409
560.6547358933249
559.9430155891406
559.465175124839
559.2261347298536
559.2282896802795
559.472805982271
559.9602512287764
560.69090170814
561.6648919000326
562.8822872401106
564.3431195272926
566.0474041282857
567.9951482937129
570.1863550800171
572.6210250050897
575.2991563269535
578.2207441005455
581.385777504477
584.7942339834642
588.4460670456659
592.3411811045171
596.4793797600012
600.8602595278981
605.4829915207907
610.3458729494895
615.4454057904995
620.7744042129157
626.3181075274794
632.0462008424411
637.8964623415249
643.7414337776407
649.3217232839014
654.1207969240877
657.1840246365373
537.3273511051525
536.575731438894
535.4524437752142
534.2386974242241
533.0885418163184
532.0796905187666
531.2503885305558
530.6193152503263
530.1955728064446
529.9835933461728
529.9855345679244
530.2024468311444
530.6348414345296
531.2829672640679
532.1469454617163
533.2268349732125
534.5226644436535
536.034447715675
537.7621913207806
539.7058980122781
541.8655682566907
544.2412004848138
546.8327902420349
549.6403277802285
552.663792781153
555.9031433640308
559.3582934225857
563.0290660357803
566.9150977370357
571.0156418482215
575.3291644639157
579.8525145012503
584.5792188626347
589.4959811054305
594.5754948435052
599.7617218809874
604.9399272207484
609.876970160566
614.1107024094307
616.7974960373494
507.1159869526895
506.4677124645833
505.4933931715766
504.4375218484291
503.4355111369717
502.5559555432939
501.8326599534028
501.2821426758405
500.9124539309089
500.7275138283669
500.7292308178487
500.9185339293107
501.2958754007128
501.8614753690072
502.615440982952
503.5578243794197
504.6886508946906
506.0079327724275
507.5156757896752
509.2118823817073
511.096552961153
513.1696861400732
515.4312779784086
517.8813198540438
520.5197937957189
523.3466627603297
526.3618505878005
529.5652007933706
532.9563918947688
536.5347634632993
540.2989587768219
544.2461907414563
548.3707340062335
552.6608282411213
557.0923227842703
561.6156627101187
566.1294333605517
570.4278512168315
574.1046783536782
576.4264364471305
476.9011838217036
476.3530322149158
475.525236364837
474.6258859431159
473.7713341830399
473.0207362443791
472.403281869724
471.9332400926236
471.6175658455448
471.4596460162364
471.4611294831482
471.6228189204738
471.9451050585213
472.4281780940835
473.0721306029543
473.8770076310351
474.8428310686961
475.9696114943801
477.257353899413
478.7060603878587
480.3157313162196
482.0863654853298
484.0179594910051
486.1105058837931
488.3639891366529
490.778377244592
493.3536044058285
496.0895354185967
498.985892524427
502.0421051175214
505.2570009998139
508.6281721452578
512.1506719167267
515.8143396503255
519.5983105478049
523.4597775085974
527.3111713048957
530.9750264568853
534.1022832649553
536.0686727144401
446.6834081861865
446.2326943870855
445.5493410832196
444.8053480305945
444.0976636702941
443.4757314892281
442.9639756394765
442.5743398135094
442.3126461954072
442.1817301505484
442.1829720681471
442.3170439240347
442.5842728267568
442.9848180038298
443.5187569571662
444.1861273979589
444.9869476522231
445.9212265759433
446.9889683477185
448.1901747290158
449.5248460182852
450.9929812116214
452.5945774591344
454.3296285243432
456.198121408442
458.2000293177227
460.3352971647437
462.6038117622946
465.005340578617
467.5394059182532
470.2050264495805
473.0001862422047
475.9207441270026
478.9581940072938
482.0950693301108
485.2955390181207
488.4863306150867
491.5191136597834
494.1030428292232
495.7221188556496
416.46314442736
416.1076876930035
415.5670569377927
414.9774517698559
414.4161403744544
413.9226297094664
413.5164529476947
413.2071648510176
412.9994235082393
412.8954974439376
412.8964910924645
413.0029420958292
413.2151121709489
413.5331287145135
413.9570537352026
414.4869174054499
415.122734387756
415.864511767728
416.712252888628
417.6659591597951
418.7256308200147
419.8912670660703
421.1628656177887
422.5404214854053
424.0239242686816
425.6133525301757
427.3086621948542
429.1097627025049
431.0164680062753
433.0283959057683
435.1447612454371
437.3639510969329
439.682652156025
442.0940588485396
444.5841969074681
447.124402047252
449.6560747495031
452.0606941401369
454.1064556636251
455.3847604958253
386.2408907954434
385.9789882986883
385.5797180960547
385.143728130956
384.728394630867
384.3631101502328
384.0624169288255
383.8334299805463
383.679618227846
383.602671099759
383.6034111027933
383.6822386364661
383.8393486100152
384.0748358999854
384.3887466863015
384.7811034393802
385.2519170788705
385.8011928816629
386.4289333375923
387.1351394962451
387.9198115354475
388.7829488570202
389.7245497628435
390.7446105368696
391.8431234337005
393.0200724881554
394.2754248760941
395.609113154312
397.0209987675368
398.5107970784397
400.0779233557362
401.7211763991461
403.4380886882723
405.2235919356818
407.0672793735774
408.9478059603131
410.8215449765947
412.6003187587248
414.1119986245051
415.0546407438803
356.0171559586916
355.847562351627
355.5886462221383
355.3056976976072
355.0360481672813
354.798844448606
354.6035636174237
354.4548431283166
354.3549440714049
354.3049676544673
354.3054500080136
354.3566521229025
354.4587010461141
354.6116586206907
354.8155549479293
355.070404674644
355.3762149185495
355.7329891192641
356.1407288997262
356.5994349440872
357.1091073682559
357.6697457823238
358.2813490794134
358.9439148373034
359.6574380073412
360.4219081829961
361.2373039686278
362.1035814029655
363.0206501720184
363.9883247416437
365.0062239685719
366.0735648791003
367.1887390811337
368.3484429511165
369.5458932183964
370.7671775192713
371.9838646262241
373.1385140866775
374.1191317330521
374.7298471833242
932.5084175263595
929.7585197415812
926.3104211610013
922.84656935755
919.6730905419421
916.9357944733281
914.7052135877703
913.0156173809726
911.8836781582174
911.3175103008723
911.3210635383257
911.8962604965888
913.0440370668499
914.7648488135178
917.058917475497
919.9263509482382
923.367201663256
927.3814949591364
931.9692427900599
937.1304501969648
942.8651180328752
949.1732434252688
956.0548182217426
963.5098245775487
971.5382253034602
980.1399437394039
989.3148222767508
999.062537076599
1009.382422846814