/*--------------------------------*- C++ -*----------------------------------*\
| =========                 |                                                 |
| \\      /  F ield         | OpenFOAM: The Open Source CFD Toolbox           |
|  \\    /   O peration     | Version:  v1812                                 |
|   \\  /    A nd           | Web:      www.OpenFOAM.com                      |
|    \\/     M anipulation  |                                                 |
\*---------------------------------------------------------------------------*/
FoamFile
{
    version     2.0;
    format      ascii;
    class       volScalarField;
    location    "0";
    object      T;
}
// * * * * * * * * * * * * * * * * * * * * * * * * * * * * * * * * * * * * * //

dimensions      [0 0 0 1 0 0 0];


internalField   nonuniform List<scalar> 
333000
(
405.038
405.052
405.077
405.111
405.152
405.2
405.253
405.31
405.371
405.434
405.5
405.568
405.637
405.708
405.78
405.853
405.926
406
406.075
406.15
406.226
406.301
406.377
406.454
406.53
406.607
406.683
406.76
406.837
406.914
406.992
407.069
407.146
407.224
407.301
407.379
407.457
407.534
407.612
407.69
407.767
407.845
407.923
408
408.078
408.156
408.234
408.312
408.389
408.467
408.545
408.624
408.702
408.78
408.859
408.937
409.016
409.095
409.174
409.254
409.333
409.413
409.493
409.573
409.654
409.735
409.816
409.897
409.978
410.06
410.141
410.223
410.305
410.387
410.469
410.551
410.633
410.715
410.797
410.878
410.959
411.04
411.12
411.2
411.278
411.356
411.432
411.507
411.58
411.651
411.719
411.785
411.847
411.905
411.959
412.007
412.048
412.082
412.106
412.12
405.041
405.055
405.079
405.113
405.154
405.201
405.254
405.31
405.371
405.434
405.5
405.567
405.636
405.707
405.779
405.851
405.924
405.998
406.073
406.148
406.223
406.298
406.374
406.45
406.527
406.603
406.68
406.756
406.833
406.91
406.987
407.064
407.141
407.219
407.296
407.373
407.451
407.528
407.606
407.683
407.761
407.838
407.916
407.993
408.071
408.148
408.226
408.303
408.381
408.459
408.537
408.615
408.693
408.771
408.849
408.927
409.006
409.085
409.163
409.242
409.322
409.401
409.481
409.561
409.641
409.721
409.802
409.883
409.964
410.045
410.126
410.208
410.289
410.371
410.452
410.534
410.615
410.697
410.778
410.859
410.94
411.02
411.099
411.178
411.256
411.333
411.409
411.483
411.556
411.627
411.695
411.76
411.821
411.879
411.932
411.979
412.02
412.053
412.077
412.091
405.048
405.061
405.085
405.118
405.159
405.205
405.257
405.314
405.374
405.436
405.501
405.569
405.638
405.708
405.779
405.851
405.924
405.998
406.072
406.146
406.221
406.296
406.372
406.448
406.523
406.6
406.676
406.752
406.829
406.905
406.982
407.059
407.135
407.212
407.289
407.366
407.443
407.52
407.598
407.675
407.752
407.829
407.906
407.983
408.06
408.138
408.215
408.292
408.369
408.447
408.524
408.602
408.679
408.757
408.835
408.913
408.991
409.069
409.148
409.226
409.305
409.384
409.463
409.543
409.622
409.702
409.782
409.863
409.943
410.024
410.104
410.185
410.266
410.347
410.428
410.509
410.59
410.671
410.751
410.832
410.912
410.991
411.07
411.148
411.226
411.302
411.377
411.451
411.523
411.593
411.66
411.725
411.786
411.843
411.895
411.942
411.982
412.015
412.038
412.051
405.058
405.071
405.094
405.127
405.167
405.213
405.264
405.32
405.379
405.441
405.506
405.573
405.641
405.711
405.781
405.853
405.926
405.999
406.072
406.146
406.221
406.295
406.37
406.446
406.521
406.597
406.672
406.748
406.824
406.9
406.976
407.053
407.129
407.205
407.282
407.358
407.435
407.512
407.588
407.665
407.741
407.818
407.895
407.971
408.048
408.125
408.201
408.278
408.355
408.432
408.509
408.586
408.663
408.74
408.817
408.895
408.972
409.05
409.128
409.206
409.284
409.362
409.441
409.52
409.599
409.678
409.757
409.837
409.917
409.997
410.077
410.157
410.237
410.317
410.398
410.478
410.558
410.638
410.718
410.797
410.877
410.956
411.034
411.111
411.188
411.264
411.338
411.411
411.482
411.552
411.618
411.682
411.743
411.799
411.85
411.897
411.936
411.968
411.991
412.003
405.071
405.084
405.107
405.138
405.178
405.223
405.274
405.329
405.388
405.449
405.513
405.579
405.647
405.716
405.786
405.857
405.929
406.002
406.075
406.148
406.222
406.296
406.37
406.445
406.52
406.594
406.67
406.745
406.82
406.896
406.971
407.047
407.123
407.198
407.274
407.35
407.426
407.502
407.578
407.654
407.73
407.806
407.882
407.958
408.034
408.11
408.186
408.262
408.338
408.415
408.491
408.567
408.644
408.72
408.797
408.873
408.95
409.027
409.104
409.182
409.259
409.337
409.415
409.493
409.571
409.65
409.728
409.807
409.886
409.965
410.044
410.123
410.203
410.282
410.362
410.441
410.521
410.6
410.679
410.757
410.836
410.914
410.991
411.068
411.144
411.219
411.292
411.364
411.435
411.503
411.569
411.632
411.692
411.747
411.798
411.844
411.882
411.914
411.936
411.948
405.088
405.1
405.122
405.154
405.192
405.237
405.287
405.341
405.399
405.46
405.523
405.589
405.656
405.724
405.793
405.864
405.935
406.006
406.079
406.151
406.224
406.298
406.371
406.445
406.519
406.593
406.668
406.742
406.817
406.892
406.967
407.041
407.116
407.191
407.266
407.342
407.417
407.492
407.567
407.642
407.718
407.793
407.868
407.943
408.019
408.094
408.169
408.245
408.32
408.396
408.471
408.547
408.622
408.698
408.774
408.85
408.926
409.002
409.078
409.155
409.232
409.308
409.385
409.463
409.54
409.618
409.695
409.773
409.851
409.929
410.008
410.086
410.164
410.243
410.321
410.4
410.478
410.557
410.635
410.712
410.79
410.867
410.943
411.019
411.094
411.168
411.24
411.312
411.381
411.449
411.514
411.576
411.635
411.689
411.739
411.784
411.822
411.853
411.875
411.886
405.108
405.12
405.142
405.172
405.21
405.254
405.303
405.357
405.414
405.474
405.536
405.601
405.667
405.734
405.803
405.872
405.943
406.014
406.085
406.157
406.229
406.302
406.374
406.447
406.52
406.594
406.667
406.741
406.815
406.889
406.963
407.037
407.111
407.185
407.259
407.333
407.408
407.482
407.556
407.631
407.705
407.779
407.854
407.928
408.003
408.077
408.152
408.226
408.301
408.375
408.45
408.525
408.599
408.674
408.749
408.824
408.899
408.975
409.05
409.126
409.201
409.277
409.353
409.43
409.506
409.583
409.659
409.736
409.813
409.89
409.967
410.045
410.122
410.2
410.277
410.355
410.432
410.509
410.586
410.663
410.739
410.815
410.891
410.965
411.039
411.112
411.184
411.254
411.322
411.389
411.453
411.514
411.572
411.626
411.675
411.719
411.756
411.786
411.807
411.819
405.132
405.143
405.164
405.194
405.231
405.275
405.323
405.376
405.432
405.491
405.552
405.616
405.681
405.748
405.815
405.884
405.953
406.023
406.094
406.164
406.236
406.307
406.379
406.451
406.523
406.596
406.668
406.741
406.814
406.887
406.96
407.033
407.106
407.179
407.252
407.326
407.399
407.472
407.546
407.619
407.693
407.766
407.839
407.913
407.986
408.06
408.133
408.207
408.28
408.354
408.428
408.501
408.575
408.649
408.723
408.797
408.871
408.945
409.02
409.094
409.169
409.244
409.319
409.394
409.469
409.545
409.621
409.696
409.772
409.848
409.924
410.001
410.077
410.153
410.23
410.306
410.382
410.458
410.534
410.61
410.685
410.76
410.834
410.907
410.98
411.052
411.122
411.192
411.259
411.324
411.387
411.448
411.505
411.557
411.606
411.649
411.685
411.715
411.735
411.746
405.159
405.17
405.191
405.22
405.256
405.299
405.346
405.398
405.453
405.511
405.571
405.634
405.698
405.764
405.83
405.898
405.966
406.035
406.105
406.174
406.245
406.315
406.386
406.457
406.528
406.599
406.671
406.743
406.814
406.886
406.958
407.03
407.102
407.174
407.247
407.319
407.391
407.463
407.536
407.608
407.68
407.753
407.825
407.897
407.97
408.042
408.115
408.187
408.26
408.332
408.405
408.477
408.55
408.623
408.696
408.769
408.842
408.915
408.988
409.062
409.135
409.209
409.283
409.357
409.431
409.505
409.58
409.654
409.729
409.804
409.879
409.954
410.029
410.104
410.179
410.254
410.329
410.404
410.479
410.553
410.627
410.701
410.774
410.846
410.918
410.988
411.057
411.125
411.192
411.256
411.318
411.377
411.433
411.485
411.532
411.574
411.61
411.638
411.659
411.669
405.19
405.2
405.221
405.249
405.285
405.326
405.373
405.423
405.477
405.534
405.594
405.655
405.718
405.783
405.848
405.915
405.982
406.05
406.118
406.187
406.256
406.325
406.395
406.465
406.535
406.605
406.676
406.746
406.817
406.887
406.958
407.029
407.1
407.171
407.242
407.313
407.384
407.455
407.526
407.598
407.669
407.74
407.811
407.882
407.954
408.025
408.096
408.168
408.239
408.31
408.382
408.453
408.525
408.596
408.668
408.74
408.812
408.884
408.956
409.028
409.1
409.173
409.245
409.318
409.391
409.464
409.537
409.611
409.684
409.758
409.831
409.905
409.979
410.053
410.126
410.2
410.274
410.347
410.421
410.494
410.566
410.639
410.71
410.781
410.852
410.921
410.989
411.056
411.121
411.184
411.245
411.303
411.358
411.408
411.455
411.496
411.531
411.559
411.578
411.588
405.225
405.235
405.254
405.282
405.317
405.357
405.403
405.452
405.505
405.561
405.62
405.68
405.742
405.805
405.869
405.935
406.001
406.067
406.134
406.202
406.27
406.338
406.407
406.475
406.544
406.613
406.682
406.751
406.821
406.89
406.96
407.03
407.099
407.169
407.239
407.309
407.378
407.448
407.518
407.588
407.658
407.728
407.798
407.868
407.938
408.008
408.078
408.148
408.218
408.288
408.359
408.429
408.499
408.569
408.64
408.71
408.781
408.852
408.922
408.993
409.064
409.136
409.207
409.278
409.35
409.422
409.494
409.566
409.638
409.71
409.782
409.854
409.927
409.999
410.072
410.144
410.216
410.288
410.36
410.432
410.503
410.574
410.645
410.714
410.783
410.851
410.918
410.984
411.047
411.109
411.169
411.225
411.279
411.329
411.374
411.414
411.448
411.475
411.494
411.504
405.263
405.273
405.292
405.319
405.352
405.392
405.436
405.485
405.537
405.592
405.649
405.708
405.769
405.831
405.894
405.958
406.023
406.088
406.154
406.22
406.287
406.353
406.421
406.488
406.556
406.623
406.691
406.759
406.827
406.895
406.964
407.032
407.1
407.169
407.237
407.306
407.374
407.443
407.511
407.58
407.649
407.717
407.786
407.855
407.923
407.992
408.061
408.129
408.198
408.267
408.336
408.405
408.474
408.543
408.612
408.681
408.75
408.819
408.889
408.958
409.028
409.098
409.168
409.238
409.308
409.378
409.449
409.519
409.59
409.661
409.732
409.803
409.874
409.945
410.015
410.086
410.157
410.228
410.298
410.369
410.438
410.508
410.577
410.645
410.713
410.779
410.845
410.909
410.971
411.032
411.09
411.146
411.198
411.247
411.291
411.33
411.363
411.389
411.408
411.418
405.305
405.315
405.333
405.359
405.392
405.431
405.474
405.522
405.572
405.626
405.682
405.74
405.799
405.86
405.921
405.984
406.048
406.112
406.176
406.241
406.306
406.372
406.437
406.503
406.57
406.636
406.702
406.769
406.836
406.902
406.969
407.036
407.103
407.17
407.237
407.305
407.372
407.439
407.506
407.573
407.64
407.708
407.775
407.842
407.91
407.977
408.044
408.112
408.179
408.246
408.314
408.381
408.449
408.516
408.584
408.652
408.719
408.787
408.855
408.923
408.992
409.06
409.129
409.197
409.266
409.335
409.404
409.473
409.542
409.611
409.68
409.75
409.819
409.889
409.958
410.028
410.097
410.166
410.235
410.304
410.372
410.44
410.507
410.574
410.64
410.705
410.769
410.832
410.893
410.952
411.009
411.063
411.115
411.162
411.205
411.243
411.276
411.301
411.319
411.328
405.352
405.361
405.379
405.404
405.436
405.473
405.516
405.562
405.611
405.664
405.718
405.775
405.833
405.892
405.953
406.014
406.076
406.138
406.202
406.265
406.329
406.393
406.457
406.522
406.587
406.651
406.716
406.782
406.847
406.912
406.978
407.043
407.109
407.174
407.24
407.305
407.371
407.437
407.503
407.568
407.634
407.7
407.766
407.831
407.897
407.963
408.029
408.095
408.161
408.227
408.293
408.359
408.425
408.491
408.557
408.623
408.689
408.756
408.822
408.889
408.956
409.022
409.089
409.156
409.224
409.291
409.358
409.426
409.493
409.561
409.629
409.697
409.764
409.832
409.9
409.968
410.036
410.103
410.171
410.238
410.305
410.371
410.437
410.502
410.567
410.63
410.693
410.754
410.813
410.871
410.927
410.98
411.029
411.076
411.118
411.155
411.186
411.211
411.228
411.237
405.402
405.411
405.428
405.453
405.484
405.52
405.561
405.606
405.655
405.706
405.759
405.814
405.871
405.929
405.987
406.047
406.108
406.169
406.231
406.292
406.355
406.417
406.48
406.543
406.607
406.67
406.733
406.797
406.861
406.924
406.988
407.052
407.116
407.18
407.244
407.309
407.373
407.437
407.501
407.565
407.629
407.694
407.758
407.822
407.887
407.951
408.015
408.079
408.144
408.208
408.273
408.337
408.402
408.466
408.531
408.595
408.66
408.725
408.79
408.855
408.92
408.985
409.051
409.116
409.182
409.247
409.313
409.379
409.445
409.511
409.577
409.643
409.709
409.776
409.842
409.908
409.974
410.04
410.106
410.171
410.236
410.301
410.365
410.429
410.492
410.554
410.615
410.674
410.733
410.789
410.843
410.895
410.943
410.988
411.029
411.065
411.096
411.12
411.136
411.145
405.457
405.465
405.482
405.506
405.536
405.571
405.611
405.655
405.702
405.752
405.803
405.857
405.912
405.969
406.026
406.084
406.143
406.203
406.263
406.323
406.384
406.445
406.507
406.568
406.63
406.691
406.753
406.815
406.877
406.94
407.002
407.064
407.127
407.189
407.252
407.314
407.377
407.439
407.502
407.564
407.627
407.69
407.752
407.815
407.878
407.94
408.003
408.066
408.129
408.191
408.254
408.317
408.38
408.443
408.506
408.569
408.632
408.695
408.758
408.822
408.885
408.949
409.013
409.076
409.14
409.204
409.268
409.332
409.397
409.461
409.526
409.59
409.655
409.719
409.784
409.848
409.912
409.976
410.041
410.104
410.168
410.231
410.293
410.355
410.417
410.477
410.536
410.594
410.651
410.706
410.758
410.809
410.856
410.9
410.939
410.974
411.004
411.027
411.043
411.052
405.516
405.524
405.54
405.563
405.592
405.627
405.665
405.708
405.754
405.802
405.852
405.904
405.958
406.013
406.069
406.126
406.183
406.241
406.299
406.358
406.417
406.477
406.536
406.596
406.656
406.716
406.777
406.837
406.897
406.958
407.019
407.079
407.14
407.201
407.262
407.323
407.383
407.444
407.505
407.566
407.627
407.688
407.749
407.81
407.871
407.932
407.993
408.054
408.115
408.176
408.238
408.299
408.36
408.421
408.482
408.544
408.605
408.667
408.728
408.79
408.852
408.914
408.976
409.038
409.1
409.162
409.224
409.287
409.349
409.412
409.475
409.537
409.6
409.663
409.726
409.788
409.851
409.913
409.976
410.038
410.099
410.161
410.222
410.282
410.341
410.4
410.458
410.514
410.569
410.622
410.673
410.722
410.768
410.811
410.849
410.883
410.912
410.934
410.95
410.958
405.579
405.587
405.603
405.625
405.653
405.687
405.724
405.765
405.81
405.856
405.905
405.956
406.008
406.061
406.116
406.171
406.227
406.283
406.34
406.397
406.454
406.512
406.57
406.628
406.686
406.745
406.803
406.862
406.921
406.98
407.039
407.098
407.157
407.216
407.275
407.334
407.393
407.452
407.511
407.571
407.63
407.689
407.748
407.808
407.867
407.926
407.986
408.045
408.104
408.164
408.223
408.283
408.342
408.401
408.461
408.521
408.58
408.64
408.7
408.76
408.82
408.88
408.94
409
409.061
409.121
409.182
409.242
409.303
409.364
409.425
409.486
409.547
409.608
409.669
409.729
409.79
409.851
409.911
409.971
410.031
410.091
410.15
410.208
410.266
410.323
410.379
410.434
410.487
410.539
410.589
410.636
410.68
410.721
410.759
410.792
410.819
410.841
410.856
410.864
405.648
405.656
405.671
405.692
405.719
405.751
405.788
405.827
405.87
405.916
405.963
406.012
406.063
406.114
406.167
406.22
406.274
406.329
406.384
406.44
406.495
406.551
406.608
406.664
406.721
406.777
406.834
406.891
406.948
407.005
407.062
407.119
407.177
407.234
407.291
407.349
407.406
407.463
407.521
407.578
407.636
407.693
407.751
407.808
407.866
407.923
407.981
408.038
408.096
408.153
408.211
408.269
408.326
408.384
408.442
408.5
408.558
408.615
408.673
408.732
408.79
408.848
408.906
408.965
409.023
409.082
409.141
409.2
409.258
409.317
409.376
409.435
409.495
409.554
409.613
409.672
409.73
409.789
409.848
409.906
409.964
410.022
410.079
410.136
410.192
410.247
410.301
410.354
410.406
410.456
410.504
410.55
410.593
410.633
410.669
410.7
410.727
410.748
410.763
410.77
405.721
405.729
405.743
405.764
405.79
405.821
405.856
405.895
405.936
405.98
406.026
406.073
406.122
406.172
406.223
406.275
406.327
406.38
406.433
406.487
406.541
406.595
406.649
406.704
406.759
406.814
406.869
406.924
406.979
407.034
407.09
407.145
407.2
407.256
407.311
407.367
407.422
407.478
407.534
407.589
407.645
407.7
407.756
407.812
407.867
407.923
407.979
408.035
408.09
408.146
408.202
408.258
408.313
408.369
408.425
408.481
408.537
408.593
408.649
408.706
408.762
408.818
408.875
408.932
408.988
409.045
409.102
409.159
409.216
409.273
409.33
409.387
409.444
409.501
409.558
409.615
409.672
409.729
409.786
409.842
409.898
409.954
410.01
410.064
410.119
410.172
410.224
410.276
410.326
410.374
410.421
410.465
410.506
410.545
410.58
410.61
410.636
410.656
410.67
410.677
405.8
405.807
405.821
405.841
405.866
405.896
405.93
405.967
406.007
406.049
406.093
406.139
406.186
406.235
406.284
406.334
406.384
406.435
406.487
406.539
406.591
406.643
406.696
406.749
406.802
406.855
406.908
406.961
407.014
407.068
407.121
407.175
407.228
407.282
407.335
407.389
407.443
407.496
407.55
407.604
407.658
407.711
407.765
407.819
407.873
407.927
407.98
408.034
408.088
408.142
408.196
408.25
408.304
408.358
408.412
408.466
408.52
408.574
408.628
408.683
408.737
408.791
408.846
408.901
408.955
409.01
409.065
409.12
409.175
409.23
409.285
409.34
409.396
409.451
409.506
409.561
409.616
409.671
409.726
409.78
409.834
409.888
409.942
409.995
410.047
410.099
410.149
410.199
410.247
410.294
410.338
410.381
410.421
410.458
410.492
410.521
410.546
410.565
410.579
410.585
405.884
405.891
405.904
405.923
405.948
405.976
406.009
406.045
406.083
406.124
406.166
406.211
406.256
406.303
406.35
406.398
406.447
406.496
406.546
406.596
406.646
406.697
406.747
406.798
406.849
406.9
406.951
407.003
407.054
407.106
407.157
407.209
407.26
407.312
407.364
407.415
407.467
407.519
407.571
407.623
407.674
407.726
407.778
407.83
407.882
407.934
407.986
408.037
408.089
408.141
408.193
408.245
408.297
408.349
408.401
408.453
408.506
408.558
408.61
408.663
408.715
408.768
408.82
408.873
408.926
408.978
409.031
409.084
409.137
409.19
409.243
409.297
409.35
409.403
409.456
409.509
409.562
409.615
409.668
409.72
409.773
409.825
409.876
409.927
409.977
410.027
410.076
410.123
410.17
410.215
410.258
410.299
410.338
410.373
410.405
410.434
410.457
410.476
410.489
410.496
405.975
405.981
405.994
406.012
406.035
406.063
406.094
406.128
406.165
406.204
406.245
406.288
406.331
406.376
406.422
406.468
406.515
406.562
406.61
406.658
406.706
406.755
406.804
406.853
406.902
406.951
407
407.05
407.099
407.149
407.198
407.248
407.297
407.347
407.397
407.447
407.496
407.546
407.596
407.646
407.696
407.746
407.795
407.845
407.895
407.945
407.995
408.045
408.095
408.145
408.195
408.245
408.295
408.345
408.395
408.445
408.495
408.545
408.596
408.646
408.697
408.747
408.798
408.848
408.899
408.95
409.001
409.052
409.103
409.154
409.205
409.256
409.307
409.358
409.409
409.46
409.511
409.562
409.613
409.663
409.714
409.763
409.813
409.862
409.91
409.958
410.005
410.051
410.095
410.139
410.18
410.219
410.256
410.291
410.322
410.349
410.371
410.389
410.402
410.408
406.071
406.077
406.089
406.107
406.129
406.155
406.185
406.218
406.253
406.291
406.33
406.371
406.413
406.456
406.499
406.544
406.589
406.634
406.68
406.726
406.773
406.819
406.866
406.913
406.96
407.007
407.055
407.102
407.149
407.197
407.244
407.292
407.34
407.387
407.435
407.483
407.531
407.578
407.626
407.674
407.722
407.77
407.818
407.865
407.913
407.961
408.009
408.057
408.105
408.153
408.201
408.249
408.297
408.345
408.393
408.441
408.489
408.537
408.586
408.634
408.682
408.731
408.779
408.828
408.876
408.925
408.974
409.023
409.072
409.121
409.17
409.219
409.268
409.317
409.366
409.415
409.464
409.512
409.561
409.609
409.658
409.706
409.753
409.8
409.846
409.892
409.937
409.981
410.024
410.065
410.105
410.143
410.178
410.211
410.241
410.267
410.288
410.305
410.317
410.323
406.174
406.18
406.192
406.208
406.229
406.254
406.283
406.314
406.348
406.384
406.422
406.461
406.501
406.542
406.584
406.626
406.669
406.713
406.756
406.801
406.845
406.89
406.934
406.979
407.024
407.07
407.115
407.16
407.206
407.251
407.297
407.342
407.388
407.433
407.479
407.525
407.57
407.616
407.662
407.708
407.753
407.799
407.845
407.891
407.937
407.982
408.028
408.074
408.12
408.166
408.212
408.258
408.304
408.35
408.396
408.442
408.488
408.534
408.58
408.626
408.672
408.719
408.765
408.812
408.858
408.905
408.952
408.998
409.045
409.092
409.139
409.186
409.233
409.28
409.327
409.373
409.42
409.467
409.513
409.56
409.606
409.651
409.697
409.742
409.786
409.83
409.873
409.915
409.956
409.995
410.033
410.07
410.103
410.135
410.163
410.188
410.209
410.225
410.236
410.242
406.284
406.29
406.301
406.317
406.337
406.361
406.388
406.418
406.45
406.485
406.52
406.557
406.596
406.635
406.675
406.715
406.756
406.798
406.84
406.882
406.924
406.967
407.01
407.052
407.095
407.138
407.182
407.225
407.268
407.312
407.355
407.399
407.442
407.486
407.529
407.573
407.616
407.66
407.704
407.747
407.791
407.835
407.878
407.922
407.966
408.01
408.053
408.097
408.141
408.185
408.228
408.272
408.316
408.36
408.404
408.448
408.492
408.536
408.58
408.624
408.668
408.712
408.757
408.801
408.845
408.89
408.934
408.979
409.024
409.068
409.113
409.158
409.203
409.247
409.292
409.337
409.381
409.426
409.47
409.514
409.558
409.602
409.645
409.688
409.731
409.772
409.813
409.853
409.892
409.93
409.966
410.001
410.033
410.063
410.09
410.113
410.133
410.149
410.159
410.165
406.403
406.408
406.418
406.433
406.453
406.475
406.501
406.53
406.56
406.593
406.627
406.662
406.698
406.736
406.774
406.812
406.851
406.891
406.931
406.971
407.011
407.051
407.092
407.133
407.174
407.215
407.256
407.297
407.338
407.379
407.421
407.462
407.503
407.545
407.586
407.628
407.669
407.711
407.752
407.794
407.835
407.877
407.919
407.96
408.002
408.043
408.085
408.127
408.168
408.21
408.251
408.293
408.335
408.377
408.418
408.46
408.502
408.544
408.586
408.628
408.67
408.712
408.754
408.796
408.838
408.881
408.923
408.965
409.008
409.05
409.093
409.135
409.178
409.22
409.263
409.305
409.348
409.39
409.432
409.474
409.516
409.558
409.599
409.64
409.68
409.72
409.759
409.797
409.834
409.87
409.904
409.937
409.968
409.996
410.021
410.044
410.063
410.077
410.087
410.093
406.53
406.535
406.544
406.559
406.577
406.598
406.623
406.65
406.679
406.71
406.742
406.775
406.81
406.845
406.881
406.918
406.955
406.992
407.03
407.068
407.106
407.144
407.183
407.221
407.26
407.299
407.338
407.377
407.416
407.455
407.494
407.534
407.573
407.612
407.651
407.691
407.73
407.769
407.809
407.848
407.887
407.927
407.966
408.006
408.045
408.085
408.124
408.163
408.203
408.242
408.282
408.321
408.361
408.4
408.44
408.479
408.519
408.559
408.599
408.638
408.678
408.718
408.758
408.798
408.838
408.878
408.918
408.958
408.999
409.039
409.079
409.12
409.16
409.2
409.241
409.281
409.321
409.361
409.401
409.441
409.481
409.52
409.559
409.598
409.636
409.673
409.71
409.746
409.781
409.815
409.848
409.879
409.908
409.935
409.959
409.98
409.998
410.012
410.022
410.026
406.666
406.671
406.68
406.694
406.711
406.731
406.754
406.78
406.807
406.836
406.866
406.898
406.931
406.964
406.998
407.032
407.067
407.103
407.138
407.174
407.21
407.246
407.283
407.319
407.356
407.393
407.429
407.466
407.503
407.54
407.577
407.614
407.651
407.688
407.725
407.762
407.799
407.837
407.874
407.911
407.948
407.985
408.023
408.06
408.097
408.134
408.171
408.209
408.246
408.283
408.32
408.358
408.395
408.432
408.47
408.507
408.545
408.582
408.62
408.657
408.695
408.732
408.77
408.808
408.846
408.883
408.921
408.959
408.997
409.035
409.073
409.111
409.15
409.188
409.226
409.264
409.302
409.339
409.377
409.415
409.452
409.489
409.526
409.563
409.599
409.634
409.669
409.703
409.736
409.768
409.799
409.828
409.856
409.881
409.904
409.924
409.941
409.954
409.963
409.968
406.814
406.818
406.827
406.84
406.856
406.875
406.896
406.92
406.946
406.973
407.002
407.032
407.062
407.094
407.126
407.158
407.191
407.224
407.258
407.291
407.325
407.359
407.393
407.428
407.462
407.497
407.531
407.566
407.6
407.635
407.67
407.705
407.74
407.774
407.809
407.844
407.879
407.914
407.949
407.984
408.019
408.054
408.089
408.124
408.159
408.194
408.229
408.264
408.299
408.334
408.369
408.404
408.439
408.474
408.509
408.544
408.58
408.615
408.65
408.685
408.721
408.756
408.792
408.827
408.863
408.898
408.934
408.969
409.005
409.041
409.077
409.113
409.148
409.184
409.22
409.256
409.291
409.327
409.362
409.398
409.433
409.468
409.502
409.537
409.571
409.604
409.637
409.669
409.7
409.73
409.759
409.786
409.812
409.836
409.858
409.876
409.892
409.904
409.913
409.917
404.999
405.014
405.04
405.076
405.118
405.168
405.222
405.281
405.343
405.408
405.476
405.545
405.617
405.689
405.763
405.837
405.913
405.989
406.065
406.142
406.219
406.297
406.375
406.453
406.531
406.61
406.688
406.767
406.846
406.925
407.004
407.083
407.162
407.242
407.321
407.4
407.48
407.559
407.639
407.718
407.798
407.877
407.957
408.037
408.116
408.196
408.276
408.355
408.435
408.515
408.595
408.675
408.755
408.835
408.915
408.995
409.076
409.157
409.238
409.319
409.4
409.482
409.563
409.645
409.728
409.81
409.893
409.976
410.059
410.142
410.225
410.309
410.392
410.476
410.559
410.643
410.727
410.81
410.894
410.977
411.059
411.142
411.223
411.304
411.384
411.463
411.541
411.618
411.692
411.765
411.835
411.902
411.965
412.025
412.08
412.129
412.171
412.206
412.231
412.246
405.002
405.017
405.042
405.077
405.119
405.168
405.222
405.28
405.342
405.406
405.473
405.543
405.613
405.686
405.759
405.833
405.908
405.984
406.06
406.136
406.213
406.29
406.368
406.445
406.523
406.601
406.679
406.758
406.836
406.915
406.994
407.072
407.151
407.23
407.309
407.388
407.467
407.546
407.625
407.704
407.784
407.863
407.942
408.021
408.1
408.18
408.259
408.338
408.417
408.497
408.576
408.656
408.735
408.815
408.895
408.975
409.055
409.135
409.216
409.296
409.377
409.458
409.54
409.621
409.703
409.785
409.867
409.949
410.031
410.114
410.197
410.28
410.362
410.446
410.529
410.612
410.695
410.777
410.86
410.943
411.025
411.106
411.187
411.268
411.347
411.425
411.503
411.578
411.652
411.724
411.793
411.86
411.923
411.982
412.036
412.084
412.126
412.16
412.185
412.199
405.009
405.023
405.048
405.082
405.123
405.171
405.224
405.282
405.343
405.407
405.474
405.543
405.613
405.684
405.757
405.831
405.905
405.98
406.056
406.132
406.208
406.285
406.362
406.439
406.516
406.594
406.672
406.749
406.827
406.906
406.984
407.062
407.14
407.219
407.297
407.376
407.454
407.533
407.611
407.69
407.769
407.847
407.926
408.004
408.083
408.162
408.241
408.319
408.398
408.477
408.556
408.635
408.714
408.793
408.872
408.952
409.031
409.111
409.191
409.271
409.351
409.432
409.512
409.593
409.674
409.755
409.837
409.918
410
410.082
410.164
410.246
410.328
410.411
410.493
410.575
410.658
410.74
410.822
410.903
410.985
411.066
411.146
411.225
411.304
411.382
411.458
411.533
411.606
411.677
411.746
411.812
411.874
411.932
411.986
412.033
412.074
412.108
412.132
412.145
405.019
405.032
405.056
405.09
405.131
405.178
405.23
405.287
405.348
405.411
405.477
405.545
405.615
405.686
405.758
405.831
405.905
405.979
406.054
406.129
406.205
406.281
406.357
406.434
406.511
406.588
406.665
406.742
406.819
406.897
406.974
407.052
407.13
407.208
407.285
407.363
407.441
407.519
407.597
407.675
407.753
407.831
407.909
407.987
408.065
408.143
408.221
408.299
408.378
408.456
408.534
408.612
408.691
408.769
408.848
408.927
409.005
409.084
409.164
409.243
409.322
409.402
409.482
409.562
409.642
409.723
409.804
409.884
409.965
410.046
410.128
410.209
410.29
410.372
410.453
410.535
410.616
410.698
410.779
410.859
410.94
411.02
411.099
411.178
411.256
411.333
411.408
411.482
411.555
411.625
411.693
411.758
411.819
411.877
411.929
411.976
412.017
412.049
412.073
412.086
405.032
405.045
405.068
405.101
405.141
405.188
405.239
405.295
405.355
405.418
405.483
405.55
405.619
405.689
405.761
405.833
405.906
405.98
406.054
406.129
406.204
406.279
406.355
406.431
406.507
406.583
406.659
406.736
406.812
406.889
406.966
407.043
407.12
407.197
407.274
407.351
407.428
407.505
407.582
407.66
407.737
407.814
407.891
407.969
408.046
408.123
408.201
408.278
408.356
408.433
408.511
408.588
408.666
408.744
408.821
408.899
408.977
409.056
409.134
409.213
409.291
409.37
409.449
409.528
409.608
409.687
409.767
409.847
409.927
410.007
410.088
410.168
410.249
410.329
410.41
410.49
410.571
410.651
410.731
410.811
410.891
410.97
411.048
411.126
411.203
411.279
411.353
411.427
411.498
411.568
411.635
411.699
411.759
411.816
411.867
411.914
411.953
411.985
412.008
412.021
405.048
405.06
405.084
405.115
405.155
405.201
405.252
405.307
405.366
405.428
405.492
405.558
405.626
405.696
405.766
405.838
405.91
405.983
406.056
406.13
406.204
406.279
406.354
406.429
406.504
406.579
406.655
406.73
406.806
406.882
406.958
407.034
407.11
407.187
407.263
407.339
407.415
407.492
407.568
407.644
407.721
407.797
407.874
407.95
408.027
408.103
408.18
408.256
408.333
408.409
408.486
408.563
408.639
408.716
408.793
408.87
408.948
409.025
409.102
409.18
409.258
409.336
409.414
409.492
409.571
409.649
409.728
409.807
409.886
409.965
410.045
410.124
410.204
410.283
410.363
410.442
410.522
410.601
410.68
410.759
410.837
410.915
410.993
411.07
411.145
411.22
411.294
411.366
411.437
411.505
411.571
411.634
411.694
411.75
411.8
411.846
411.885
411.916
411.938
411.95
405.068
405.08
405.102
405.133
405.172
405.217
405.267
405.321
405.379
405.44
405.504
405.569
405.636
405.705
405.775
405.845
405.916
405.988
406.061
406.134
406.207
406.281
406.354
406.429
406.503
406.577
406.652
406.727
406.801
406.876
406.951
407.027
407.102
407.177
407.252
407.328
407.403
407.478
407.554
407.629
407.705
407.78
407.856
407.931
408.007
408.082
408.158
408.233
408.309
408.385
408.46
408.536
408.612
408.688
408.764
408.84
408.916
408.993
409.069
409.146
409.222
409.299
409.377
409.454
409.531
409.609
409.686
409.764
409.842
409.921
409.999
410.077
410.155
410.234
410.312
410.391
410.469
410.547
410.625
410.703
410.78
410.857
410.934
411.009
411.084
411.158
411.23
411.302
411.371
411.438
411.503
411.565
411.624
411.679