/*--------------------------------*- C++ -*----------------------------------*\
| =========                 |                                                 |
| \\      /  F ield         | OpenFOAM: The Open Source CFD Toolbox           |
|  \\    /   O peration     | Version:  v2012                                 |
|   \\  /    A nd           | Website:  www.openfoam.com                      |
|    \\/     M anipulation  |                                                 |
\*---------------------------------------------------------------------------*/
FoamFile
{
    version     2.0;
    format      ascii;
    class       volScalarField;
    location    "0.2";
    object      T;
}
// * * * * * * * * * * * * * * * * * * * * * * * * * * * * * * * * * * * * * //

dimensions      [0 0 0 1 0 0 0];


internalField   nonuniform List<scalar> 
8000
(
718.994401128777
703.3346785529861
686.2340043064211
670.4957811859995
656.8141014082328
645.3656141344935
636.1954737495295
629.3152310074671
624.7278403408941
622.4340546136159
622.4340546137103
624.7278403410517
629.3152310078749
636.1954737500016
645.3656141348409
656.8141014087252
670.4957811864004
686.2340043067903
703.3346785532946
718.9944011290496
698.8566850230127
684.1514155199613
667.9237327664038
652.9537744154461
639.9316530147773
629.0330528550722
620.3028835932304
613.7526334650771
609.3852409163459
607.2014547371002
607.2014547371931
609.3852409165048
613.7526334654809
620.3028835937001
629.0330528554225
639.9316530152661
652.9537744158473
667.9237327667743
684.1514155202694
698.8566850232859
678.7249641615742
664.9411905906214
649.5795489859514
635.3761301230803
623.013127888787
612.664302568976
604.3740757096563
598.1538108493191
594.0064145464388
591.9326274656958
591.9326274657859
594.0064145465982
598.1538108497161
604.3740757101207
612.6643025693286
623.0131278892698
635.3761301234795
649.5795489863202
664.941190590929
678.7249641618466
658.599145331646
645.7063529289391
631.203912246231
617.7653273867214
606.0610099180938
596.2618483843132
588.4115355186576
582.5212486597621
578.5938467510566
576.6300583241634
576.6300583242511
578.5938467512154
582.5212486601497
588.411535519115
596.2618483846668
606.0610099185667
617.7653273871159
631.2039122465961
645.7063529292463
658.5991453319147
638.4790886257451
626.449069530969
612.7991460099759
600.1237191249036
589.0776592005839
579.8280522210038
572.4176254056555
566.8573094008632
563.1499000649878
561.2961098545766
561.2961098546608
563.1499000651448
566.8573094012386
572.4176254061031
579.8280522213555
589.0776592010448
600.1237191252898
612.7991460103353
626.4490695312747
638.4790886260087
618.3646142484999
607.1713431749773
594.3674508130538
582.4535447265997
572.0653246316321
563.3651653882058
556.3945972965397
551.1642451562241
547.676826612023
545.9330341903765
545.9330341904571
547.6768266121778
551.1642451565854
556.3945972969743
563.3651653885543
572.065324632078
582.4535447269756
594.3674508134053
607.1713431752801
618.3646142487567
598.2555083993121
587.8750287225772
575.9109160008215
564.7569414636898
555.0261552609278
546.875339927908
540.3446039979136
535.4442089279821
532.1767794441257
530.5429843954902
530.5429843955676
532.1767794442771
535.4442089283275
540.3446039983338
546.875339928251
555.0261552613562
564.7569414640528
575.9109160011628
587.875028722875
598.2555083995617
578.151528350884
568.5618479543543
557.4315304446992
547.0359548315089
537.9622105646187
530.3606388706742
524.2697094487008
519.6992648873555
516.6518227917074
515.1280247145456
515.1280247146183
516.6518227918543
519.6992648876832
524.2697094491035
530.360638871009
537.9622105650268
547.0359548318575
557.4315304450283
568.5618479546437
578.1515283511244
558.0524068284883
549.2334031039553
538.931192358882
529.2925479460041
520.8754697619211
513.8230455328081
508.171898012375
503.93139766562
501.1039413542849
499.6901398634454
499.6901398635141
501.1039413544266
503.931397665928
508.1718980127578
513.8230455331321
520.8754697623075
529.2925479463362
538.9311923591973
549.2334031042338
558.0524068287194
537.9578557817883
529.8911892374921
520.4117183236233
511.5286101113115
503.7678402907235
497.2644719695604
492.0530829244973
488.1425208001933
485.5350487461964
484.2312434749996
484.2312434750634
485.5350487463318
488.1425208004807
492.0530829248578
497.264471969872
503.7678402910863
511.5286101116254
520.411718323923
529.891189237756
537.9578557820097
517.8675696296109
510.536605610115
501.8748516097759
493.7459646588006
486.6411655439411
480.686766686289
475.9151139974765
472.3344844377639
469.9469951993129
468.7531858015337
468.7531858015928
469.9469951994417
472.3344844380297
475.9151139978131
480.6867666865858
486.6411655442789
493.7459646590947
501.874851610058
510.5366056103616
517.8675696298204
497.7812280482513
491.1709661184578
483.3222698890777
475.9463761474685
469.4972319572874
464.0917216983703
459.7597846734005
456.5090823853125
454.3415746135974
453.2577607653402
453.257760765394
454.3415746137186
456.5090823855553
459.7597846737111
464.0917216986493
469.4972319575985
475.9463761477409
483.3222698893412
491.1709661186858
497.7812280484482
477.698498365363
471.795508956194
464.7555924058086
458.1315570059034
452.3377755294539
447.4810790210173
443.5888385061264
440.6680585902262
438.72053103672
437.7467124381691
437.746712438218
438.7205310368323
440.6680585904458
443.5888385064094
447.4810790212766
452.337775529737
458.1315570061533
464.7555924060522
471.7955089564019
477.698498365545
457.6190376141133
452.4114055698947
446.1763866777799
440.3031736876442
435.1644878473167
430.8565366617992
427.4039751454679
424.8131131223582
423.0855646455698
422.2217410226136
422.2217410226572
423.0855646456731
424.8131131225534
427.4039751457218
430.8565366620365
435.1644878475706
440.30317368787
446.1763866780022
452.411405570082
457.6190376142781
437.5424942959729
433.0197690037071
427.5861747879936
422.4628524045057
417.97902168154
414.2197541814082
411.2068558890712
408.9459077236287
407.4383372952816
406.6845084009948
406.6845084010328
407.4383372953741
408.9459077237996
411.2068558892946
414.2197541816214
417.9790216817636
422.4628524047064
427.5861747881933
433.0197690038732
437.5424942961174
417.4685098950641
413.6216617138197
408.9864393226245
404.6121844962125
400.7829962117038
397.5723578819982
394.9991088613524
393.068070984561
391.7804776951549
391.1366433111348
391.1366433111672
391.7804776952361
393.0680709847067
394.9991088615444
397.5723578821847
400.7829962118965
404.6121844963871
408.9864393227999
413.6216617139645
417.4685098951853
397.3967201823762
394.2181029272138
390.378629006107
386.7527314893264
383.5780019347443
380.9159456770807
378.7823338735355
377.1812032017938
376.1135862655274
375.5797462030753
375.5797462031019
376.1135862655968
377.1812032019143
378.7823338736951
380.9159456772389
383.5780019349049
386.7527314894738
390.3786290062562
394.2181029273371
397.3967201824719
377.3267563442438
374.810075613679
371.7641640799908
368.8860298939466
366.3656053059547
364.2520916924421
362.5581070142998
361.2868809661049
360.4392397251272
360.0153938262695
360.0153938262906
360.4392397251838
361.2868809662002
362.5581070144262
364.2520916925704
366.365605306083
368.8860298940655
371.7641640801123
374.8100756137803
377.3267563443129
357.2582459662092
355.398533135414
353.1444414687732
351.013595782839
349.1473531579966
347.5823506437346
346.3279850167559
345.38666152667
344.7589954546389
344.4451435929824
344.4451435929979
344.7589954546821
345.3866615267401
346.3279850168491
347.5823506438314
349.1473531580919
351.0135957829285
353.1444414688655
355.3985331354925
357.258245966254
337.1908139007112
335.9844056346916
334.520839773061
333.1369291945348
331.9247769402185
330.9082620332671
330.0935094443253
329.4820869741502
329.0743956790816
328.8705377604967
328.8705377605067
329.0743956791099
329.4820869741952
330.0935094443853
330.9082620333309
331.9247769402805
333.1369291945938
334.5208397731219
335.9844056347449
337.1908139007352
723.7630204857751
708.103297909402
691.0026236633084
675.2644005419086
661.582720764622
650.134233491069
640.9640931052049
634.0838503651404
629.4964596970131
627.2026739701515
627.2026739702995
629.4964596974005
634.083850365467
640.9640931056041
650.1342334916737
661.5827207651664
675.2644005424747
691.0026236637642
708.103297909791
723.7630204861474
703.2872668616729
688.5819973580377
672.3543146049554
657.3843562530124
644.3622348528216
633.4636346933139
624.7334654305554
618.1832153044189
613.8158227541251
611.6320365752971
611.6320365754398
613.8158227545036
618.1832153047527
624.7334654309578
633.4636346939111
644.3622348533657
657.3843562535749
672.3543146054102
688.5819973584272
703.2872668620404
682.8372301100042
669.0534565384808
653.6918149342804
639.4883960704259
627.1253938366048
616.7765685170008
608.486341656758
602.2660767984383
598.1186804939998
596.044893413671
596.0448934138093
598.1186804943675
602.2660767987765
608.4863416571612
616.776568517587
627.1253938371459
639.4883960709813
653.6918149347327
669.0534565388684
682.8372301103612
662.4108047366736
649.5180123334223
635.0155716511713
621.5769867906888
609.8726693225219
600.0735077889574
592.2231949223831
586.3329080654873
582.4055061552388
580.4417177287556
580.4417177288877
582.4055061555944
586.3329080658273
592.223194922785
600.0735077895299
609.8726693230568
621.5769867912333
635.0155716516184
649.5180123338071
662.410804737015
642.006040173162
629.9760210778793
616.3260975573239
603.6506706712941
592.6046107474224
583.3550037680648
575.9445769518112
570.3842609489842
566.6768516115937
564.8230614015852
564.8230614017108
566.6768516119342
570.3842609493241
575.9445769522086
583.3550037686214
592.6046107479477
603.6506706718237
616.3260975577645
629.9760210782576
642.0060401734842
621.6211237942613
610.4278527202758
597.6239603587661
585.7100542713764
575.3218341768411
566.6216749336425
559.6511068410914
554.4207547026922
550.9333361570137
549.1895437357598
549.1895437358785
550.9333361573381
554.4207547030287
559.6511068414825
566.6216749341793
575.3218341773537
585.7100542718883
597.6239603591969
610.4278527206455
621.6211237945618
601.2543657734368
590.8738860962833
578.9097733749155
567.7557988368741
558.0250126345265
549.8741973017375
543.3434613708874
538.4430663028085
535.1756368175226
533.5418417692676
533.54184176938
535.1756368178294
538.4430663031391
543.3434613712699
549.8741973022517
558.0250126350238
567.7557988373659
578.909773375334
590.8738860966428
601.2543657737137
580.9041855448186
571.314505147913
560.1841876386172
549.78861202455
540.7148677580516
533.1132960643398
527.0223666415451
522.4519220819766
519.4044799849561
517.8806819081603
517.880681908265
519.4044799852437
522.4519220822993
527.0223666419165
533.1132960648297
540.7148677585299
549.7886120250183
560.1841876390201
571.3145051482591
580.9041855450699
560.5690996693055
551.7500959444318
541.4478851996898
531.8092407859722
523.3921626022575
516.3397383733753
510.688590852162
506.4480905070961
503.6206341944541
502.206832703964
502.2068327040615
503.6206341947222
506.4480905074082
510.6885908525199
516.3397383738393
523.3921626027144
531.8092407864144
541.4478852000751
551.7500959447635
560.5690996695316
540.2477109269865
532.1810443823769
522.7015734688115
513.8184652557011
506.0576954354559
499.5543271145204
494.3429380687221
490.4323759460098
487.8249038907792
486.5210986199134
486.5210986200029
487.824903891027
490.432375946309
494.3429380690641
499.5543271149558
506.057695435889
513.8184652561155
522.7015734691757
532.1810443826919
540.2477109271874
519.9386984794291
512.6077344596367
503.945980459576
495.8170935078478
488.7122943933051
482.7578955358745
477.9862428463762
474.4056132881492
472.0181240485441
470.8243146510754
470.8243146511573
472.0181240487708
474.405613288433
477.9862428467001
482.7578955362796
488.712294393711
495.8170935082326
503.9459804599171
512.6077344599352
519.9386984796058
499.6408089638988
493.0305470338191
485.1818508046927
477.8059570623814
471.3568128724893
465.9513026137851
461.6193655881829
458.3686633014655
456.2011555286835
455.117341680714
455.1173416807881
456.2011555288887
458.3686633017317
461.6193655884862
465.9513026141583
471.356812872866
477.8059570627349
485.1818508050088
493.0305470341006
499.6408089640535
479.3528483975295
473.4498589880791
466.4099424379245
459.785907037373
453.9921255611831
449.1354290529487
445.243188537482
442.3224086228302
440.3748810683496
439.4010624700625
439.4010624701289
440.3748810685329
442.3224086230772
445.243188537763
449.1354290532881
453.9921255615286
459.7859070376935
466.4099424382138
473.4498589883422
479.3528483976644
459.0736747832196
453.8660427387223
447.6310238468162
441.7578108560938
436.6191250159967
432.3111738306681
428.8586123138197
426.2677502918302
424.5402018141663
423.6763781914477
423.6763781915065
424.5402018143273
426.2677502920557
428.8586123140761
432.3111738309727
436.6191250163088
441.7578108563805
447.6310238470771
453.866042738966
459.073674783337
438.8021913208649
434.2794660283261
428.845871812799
423.722549428789
419.2387187060236
415.4794512060645
412.4665529132719
410.2056047488165
408.6980343196962
407.9442054256198
407.9442054256705
408.6980343198357
410.205604749018
412.4665529135013
415.479451206333
419.2387187063001
423.7225494290408
428.8458718130305
434.2794660285481
438.8021913209661
418.5373401376542
414.6904919561492
410.0552695651173
405.6810147382517
401.8518264539134
398.6411881243616
396.0679391033238
394.1369012273814
392.8493079373092
392.2054735534704
392.2054735535133
392.8493079374268
394.1369012275575
396.0679391035246
398.6411881245925
401.8518264541525
405.6810147384676
410.055269565318
414.690491956347
418.5373401377406
398.2780964597621
395.0994792043629
391.2600052833936
387.6341077662324
384.4593782117901
381.7973219542594
379.663710150387
378.0625794793531
376.9949625425309
376.4611224802303
376.4611224802655
376.9949625426268
378.0625794795019
379.6637101505571
381.7973219544523
384.4593782119904
387.634107766412
391.2600052835622
395.0994792045325
398.2780964598346
378.0234631550578
375.5067824242943
372.4608708907161
369.5827367043668
367.0623121164847
364.9487985030815
363.2548138246784
361.9835877770475
361.1359465356263
360.7121006368894
360.7121006369171
361.1359465357012
361.9835877771673
363.2548138248161
364.9487985032357
367.062312116645
369.5827367045094
372.4608708908517
375.5067824244325
378.0234631551189
357.7724655825164
355.9127527515729
353.6586610850138
351.5278153988523
349.6615727740903
348.0965702599119
346.8422046327392
345.9008811430714
345.273215070712
344.9593632091445
344.9593632091648
345.273215070766
345.9008811431612
346.8422046328427
348.0965702600264
349.6615727742094
351.5278153989577
353.6586610851153
355.9127527516773
357.7724655825672
337.5241466890138
336.3177384229019
334.8541725613233
333.4702619826501
332.2581097283851
331.2415948214892
330.4268422324216
329.815419762517
329.4077284672359
329.2038705487089
329.2038705487217
329.4077284672703
329.8154197625759
330.4268422324897
331.2415948215637
332.2581097284629
333.4702619827185
334.8541725613896
336.3177384229708
337.5241466890507
730.1376618398715
714.4779392636418
697.3772650169823
681.6390418961537
667.9573621186946
656.5088748451823
647.338734460076
640.4584917186569
635.8711010515987
633.5773153241229
633.5773153242957
635.8711010519162
640.45849171906
647.3387344606987
656.5088748458335
667.9573621193409
681.6390418967505
697.3772650174828
714.4779392640027
730.1376618402373
709.3085160907622
694.6032465872636
678.3755638336188
663.4056054822439
650.3834840818835
639.4848839224114
630.7547146604105
624.2044645329295
619.8370719837054
617.6532858042477
617.6532858044176
619.8370719840215
624.2044645333298
630.7547146610294
639.4848839230623
650.3834840825291
663.4056054828402
678.3755638341199
694.6032465876268
709.3085160911295
688.5116160630823
674.7278424916725
659.3662008869262
645.1627820236325
632.7997797896448
622.4509544700729
614.1607276105792
607.9404627509357
603.7930664475583
601.7192793665926
601.7192793667584
603.7930664478725
607.9404627513317
614.1607276111909
622.4509544707195
632.7997797902858
645.1627820242235
659.3662008874243
674.7278424920436
688.5116160634465
667.7447127925118
654.8519203893376
640.3494797065638
626.9108948466329
615.2065773783037
605.4074158447687
597.5571029789288
591.6668161207406
587.7394142115352
585.7756257844114
585.7756257845723
587.7394142118451
591.6668161211295
597.5571029795291
605.4074158454064
615.2065773789368
626.9108948472135
640.349479707058
654.8519203897196
667.7447127928665
647.0056600108319
634.9756409155799
621.3257173945319
608.6502905090405
597.604230585012
588.3546236056815
580.9441967901416
575.3838807860628
571.676471449689
569.8226812390435
569.8226812391975
571.6764714499931
575.3838807864437
580.9441967907271
588.3546236063069
597.6042305856332
608.6502905096067
621.325717395018
634.9756409159726
647.0056600111726
626.2924073639808
615.099136289975
602.2952439280053
590.3813378411388
579.9931177464525
571.2929585032796
564.3223904114167
559.0920382718136
555.6046197271191
553.8608273052364
553.8608273053835
555.6046197274147
559.0920382721839
564.3223904119841
571.2929585038879
579.9931177470584
590.3813378416864
602.2952439284812
615.0991362903769
626.2924073643032
605.6029937546133
595.2225140773896
583.2584013555937
572.1044268180589
562.3736406155659
554.2228252828013
547.69208935261
542.7916942833821
539.5242647990409
537.8904697501705
537.8904697503095
539.5242647993266
542.7916942837404
547.6920893531561
554.2228252833899
562.3736406161531
572.1044268185849
583.258401356057
595.2225140777966
605.602993754915
584.9355408356756
575.3458604386542
564.2155429289616
553.8199673153806
544.7462230487449
537.1446513550561
531.0537219328871
526.4832773722308
523.4358352761092
521.9120371987159
521.9120371988464
523.4358352763836
526.4832773725751
531.0537219334087
537.1446513556211
544.7462230493094
553.819967315882
564.2155429294085
575.3458604390603
584.9355408359542
564.2882466725134
555.4692429474878
545.1670322023776
535.5283877891229
527.1113096052798
520.0588853764194
514.4077378557945
510.1672375097073
507.3397811979145
505.9259797068494
505.9259797069712
507.3397811981763
510.1672375100363
514.4077378562899
520.0588853769576
527.1113096058181
535.5283877895966
545.1670322028056
555.4692429478876
564.2882466727687
543.659379583718
535.5927130389314
526.1132421250232
517.2301339123507
509.4693640919869
502.9659957710723
497.7546067258231
493.8440446021604
491.2365725477242
489.93276727631
489.9327672764228
491.2365725479718
493.844044602472
497.7546067262891
502.9659957715804
509.4693640924959
517.2301339127961
526.1132421254299
535.5927130393188
543.6593795839505
523.0472721649037
515.7163081449226
507.0545541445424
498.9256671932246
491.8208680785726
485.8664692211621
481.0948165321709
477.5141869730681
475.1266977341999
473.9328883362134
473.9328883363164
475.1266977344314
477.5141869733607
481.0948165326054
485.8664692216372
491.8208680790491
498.9256671936383
507.0545541449252
515.7163081452929
523.0472721651148
502.4503154947847
495.8400535645165
487.9913573350925
480.6154635931612
474.1663194031706
468.7608091444853
464.4288721193464
461.1781698318311
459.0106620597249
457.9268482112717
457.9268482113647
459.0106620599391
461.1781698321034
464.4288721197472
468.7608091449248
474.1663194036121
480.6154635935424
487.9913573354494
495.8400535648666
502.4503154949762
481.8669535189964
475.9639641093684
468.9240475589371
462.3000121587326
456.5062306824556
451.6495341742385
447.75729365919
444.8365137438208
442.8889861899519
441.915167591219
441.9151675913021
442.888986190148
444.836513744071
447.7572936595553
451.6495341746399
456.5062306828589
462.3000121590795
468.9240475592666
475.9639641096944
481.8669535191686
461.2956776039505
456.0880455592931
449.8530266671319
443.9798136767222
438.8411278365488
434.5331766512365
431.0806151347599
428.4897531121354
426.7622046350161
425.8983810118928
425.898381011966
426.7622046351926
428.4897531123617
431.0806151350878
434.5331766515972
438.8411278369119
443.9798136770336
449.8530266674322
456.0880455595924
461.2956776041024
440.7350212505163
436.2122959578385
430.7787017420795
425.6553793583454
421.1715486355145
417.4122811355709
414.3993828431026
412.1384346780954
410.6308642494517
409.8770353550146
409.8770353550775
410.6308642496078
412.1384346782966
414.3993828433917
417.412281135889
421.1715486358354
425.6553793586203
430.7787017423489
436.2122959581079
440.7350212506459
420.1835549553197
416.3367067736971
411.701484382458
407.3272295558306
403.4980412714373
400.2874029418995
397.714153921138
395.7831160447275
394.4955227550626
393.8516883709097
393.8516883709628
394.495522755197
395.7831160449027
397.7141539213872
400.2874029421731
403.498041271714
407.3272295560672
411.7014843826947
416.3367067739332
420.1835549554241
399.6398812058745
396.4612639503765
392.6217900292285
388.9958925122652
385.8211629577786
383.15910670026
381.0254948966156
379.4243642251973
378.3567472887119
377.8229072261463
377.8229072261896
378.3567472888241
379.4243642253449
381.0254948968241
383.1591067004884
385.8211629580097
388.995892512463
392.6217900294295
396.4612639505758
399.639881205953
379.1026295945466
376.5859488637005
373.5400373299751
370.6619031437827
368.1414785558662
366.0279649424735
364.3339802642502
363.0627542163178
362.2151129751628
361.7912670762126
361.7912670762463
362.2151129752522
363.0627542164368
364.3339802644163
366.0279649426551
368.1414785560507
370.6619031439409
373.5400373301386
376.5859488638602
379.1026295946023
358.5704520353921
356.7107392043815
354.4566475377096
352.3258018516637
350.4595592268768
348.8945567127065
347.6401910856659
346.6988675957785
346.0712015236142
345.7573496618872
345.7573496619116
346.0712015236804
346.6988675958677
347.6401910857894
348.8945567128415
350.4595592270139
352.3258018517817
354.4566475378333
356.7107392045
358.5704520354309
338.0420180671838
336.8356098010235
335.3720439393702
333.9881333607707
332.7759811064904
331.7594661995999
330.9447136106169
330.333291140573
329.9255998454166
329.7217419267849
329.7217419268004
329.9255998454598
330.3332911406315
330.9447136106969
331.7594661996874
332.7759811065791
333.9881333608479
335.3720439394518
336.8356098011002
338.0420180672091
737.1667911929812
721.507068616645
704.4063943699566
688.668171248925
674.9864914716695
663.5380041981731
654.3678638133416
647.4876210721251
642.9002304041924
640.6064446771252
640.6064446771516
642.9002304044511
647.487621072769
654.3678638140092
663.5380041988573
674.9864914723794
688.6681712495844
704.4063943705099
721.5070686171232
737.1667911934028
715.9802784546703
701.2750089510699
685.047326197392
670.0773678458186
657.0552464456675
646.1566462862017
637.4264770244877
630.8762268971942
626.5088343470926
624.3250481680561
624.3250481680845
626.5088343473504
630.8762268978345
637.4264770251548
646.1566462868876
657.0552464463736
670.0773678464756
685.0473261979469
701.2750089515469
715.9802784550859
694.8286274777543
681.0448539062688
665.6832123014838
651.4797934379941
639.1167912042204
628.7679658846456
620.4777390254494
614.257474165977
610.1100778617268
608.0362907811883
608.0362907812187
610.1100778619821
614.2574741666079
620.4777390261105
628.7679658853281
639.1167912049192
651.4797934386444
665.6832123020356
681.0448539067434
694.8286274781626
673.7095557125258
660.8167633093205
646.3143226265032
632.8757377663753
621.1714202982636
611.3722587647165
603.5219458991805
597.6316590411463
593.7042571310806
591.7404687043877
591.7404687044199
593.7042571313333
597.6316590417653
603.5219458998329
611.3722587653921
621.171420298951
632.8757377670138
646.3143226270474
660.8167633097919
673.7095557129247
652.620867306709
640.5908482114814
626.9409246903869
614.265497804697
603.2194378808872
593.9698309015364
586.559404086304
580.9990880823625
577.2916787451468
575.4378885349291
575.4378885349629
577.2916787453948
580.9990880829645
586.5594040869433
593.9698309022008
603.2194378815593
614.2654978053193
626.9409246909195
640.5908482119474
652.6208673070968
631.5604471220737
620.3671760481518
607.5632836861361
595.6493775990672
585.2611575045987
576.5609982613976
569.5904301698434
564.3600780303601
560.8726594848491
559.1288670633872
559.1288670634226
560.8726594850909
564.3600780309424
569.590430170466
576.5609982620467
585.2611575052518
595.6493775996702
607.5632836866527
620.3671760486117
631.5604471224466
610.5262549975058
600.1457753204232
588.1816625985847
577.0276880608441
567.2969018585662
559.1460865257658
552.6153505958812
547.7149555267562
544.447526041628
542.8137309931692
542.8137309932058
544.4475260418626
547.7149555273156
552.6153505964832
559.1460865263963
567.2969018591969
577.0276880614231
588.1816625990814
600.1457753208738
610.5262549978601
589.5163202376373
579.9266398408096
568.7963223310795
558.400746717291
549.3270024508653
541.725430757135
535.6345013352675
531.0640567746973
528.0166146778234
526.4928166008286
526.4928166008665
528.01661467805
531.06405677523
535.6345013358449
541.7254307577419
549.32700245147
558.4007467178424
568.7963223315534
579.9266398412482
589.5163202379723
568.528736308044
559.7097325832542
549.4075218381134
539.7688774246507
531.3517992410102
524.299375012104
518.6482274917728
514.4077271457563
511.5802708332503
510.1664693425674
510.1664693426058
511.5802708334668
514.4077271462605
518.6482274923223
524.299375012684
531.3517992415857
539.7688774251714
549.4075218385613
559.7097325836785
568.528736308357
547.5616557195664
539.494989175045
530.0155182611161
521.1324100482371
513.3716402280669
506.8682719071015
501.6568828621362
497.7463207385296
495.138848683424
493.8350434123724
493.8350434124109
495.1388486836292
497.7463207390023
501.6568828626548
506.8682719076514
513.3716402286103
521.1324100487254
530.0155182615357
539.494989175454
547.5616557198571
526.613285085578
519.2823210658793
510.6205670654879
502.4916801139685
495.3868809994992
489.4324821420344
484.6608294533148
481.0801998942546
478.6927106547634
477.4989012571177
477.4989012571561
478.6927106549564
481.080199894694
484.6608294537997
489.4324821425508
495.386881000007
502.4916801144209
510.6205670658777
519.2823210662714
526.6132850858468
505.6818803370174
499.0716184070347
491.2229221776103
483.8470284354857
477.3978842456648
471.9923739869233
467.6604369620405
464.409734674556
462.2422269018767
461.15841305374
461.1584130537776
462.242226902056
464.4097346749599
467.6604369624892
471.9923739874025
477.3978842461349
483.8470284359004
491.2229221779693
499.0716184074096
505.6818803372648
484.7657420808222
478.8627526714714
471.8228361210498
465.1988007206641
459.4050192445428
454.5483227362683
450.6560822214584
447.7353023061094
445.78777475172
444.8139561532765
444.8139561533133
445.7877747518848
447.7353023064766
450.6560822218683
454.5483227367077
459.405019244972
465.1988007210397
471.8228361213775
478.8627526718279
484.7657420810481
463.8632110880613
458.6555790436637
452.4205601515213
446.5473471609447
441.4086613209122
437.1007101355424
433.6481486192848
431.0572865966712
429.3297381190861
428.4659144962246
428.4659144962594
429.3297381192353
431.0572865969999
433.6481486196536
437.100710135939
441.4086613212982
446.5473471612801
452.4205601518167
458.6555790439999
463.863211088264
442.9726638985876
438.4499386061439
433.0163443904116
427.8930220065282
423.409191283822
419.6499237838223
416.6370254915508
414.3760773265474
412.8685068974945
412.114678003289
412.1146780033213
412.868506897627
414.3760773268364
416.6370254918766
419.6499237841737
423.4091912841629
427.8930220068222
433.0163443906743
438.4499386064566
442.9726638987642
422.092508529467
418.2456603480475
413.6104379568407
409.2361831300835
405.4069948457982
402.1963565162071
399.6231074956188
397.6920696192064
396.4044763291899
395.7606419452379
395.7606419452669
396.4044763293053
397.6920696194547
399.6231074958994
402.1963565165107
405.406994846092
409.2361831303355
413.6104379570697
418.2456603483317
422.0925085296142
401.2211802747742
398.0425630194448
394.2030890983318
390.5771915812606
387.4024620268644
384.7404057692974
382.6067939658003
381.0056632943762
379.9380463575984
379.4042062952012
379.4042062952266
379.9380463576958
381.0056632945825
382.6067939660349
384.7404057695515
387.4024620271101
390.5771915814704
394.203089098526
398.0425630196941
401.2211802748903
380.3571375846348
377.8404568539205
374.7945453202297
371.9164111339525
369.3959865461086
367.2824729326736
365.5884882545694
364.3172622066289
363.469620965242
363.0457750664261
363.0457750664476
363.4696209653202
364.3172622067931
365.5884882547568
367.2824729328768
369.3959865463045
371.9164111341196
374.7945453203874
377.8404568541282
380.3571375847217
359.4988580115957
357.6391451806803
355.3850535140389
353.2542078279312
351.3879652031987
349.822962688994
348.5685970620434
347.6272735721477
346.9996074998119
346.685755638185
346.6857556382014
346.9996074998708
347.6272735722691
348.5685970621827
349.8229626891452
351.387965203344
353.2542078280553
355.3850535141584
357.63914518084
359.4988580116579
338.6448342125959
337.4384259464948
335.9748600848642
334.5909495062257
333.3787972519807
332.3622823450663
331.5475297561426
330.9361072860914
330.5284159908248
330.324558072258
330.3245580722692
330.5284159908635
330.9361072861701
331.5475297562331
332.3622823451647
333.3787972520751
334.590949506307
335.9748600849436
337.4384259466013
338.6448342126359
744.4712549909341
728.8115324146219
711.710858167905
695.9726350469743
682.2909552694716
670.8424679965283
661.6723276111741
654.792084870404
650.2046942023129
647.9109084743461
647.9109084745014
650.2046942026869
654.7920848708596
661.672327611884
670.8424679973186
682.2909552703188
695.9726350477517
711.7108581685242
728.8115324150486
744.471254991421
722.9258441985818
708.2205746949965
691.9928919412987
677.0229335898331
664.0008121894236
653.1022120305291
644.3720427682803
637.8217926414376
633.4544000911753